+ 0.2 0 1 tcp 40 ------- 0 0.0 3.0 0 0
- 0.2 0 1 tcp 40 ------- 0 0.0 3.0 0 0
r 0.200004 0 1 tcp 40 ------- 0 0.0 3.0 0 0
+ 0.200004 1 2 tcp 40 ------- 0 0.0 3.0 0 0
- 0.200004 1 2 tcp 40 ------- 0 0.0 3.0 0 0
r 0.200036 1 2 tcp 40 ------- 0 0.0 3.0 0 0
+ 0.200036 2 3 tcp 40 ------- 0 0.0 3.0 0 0
- 0.200036 2 3 tcp 40 ------- 0 0.0 3.0 0 0
r 0.200196 2 3 tcp 40 ------- 0 0.0 3.0 0 0
+ 0.200196 3 2 ack 40 ------- 0 3.0 0.0 0 1
- 0.200196 3 2 ack 40 ------- 0 3.0 0.0 0 1
r 0.200356 3 2 ack 40 ------- 0 3.0 0.0 0 1
+ 0.200356 2 1 ack 40 ------- 0 3.0 0.0 0 1
- 0.200356 2 1 ack 40 ------- 0 3.0 0.0 0 1
r 0.200388 2 1 ack 40 ------- 0 3.0 0.0 0 1
+ 0.200388 1 0 ack 40 ------- 0 3.0 0.0 0 1
- 0.200388 1 0 ack 40 ------- 0 3.0 0.0 0 1
r 0.200392 1 0 ack 40 ------- 0 3.0 0.0 0 1
+ 0.200392 0 1 tcp 1040 ------- 0 0.0 3.0 1 2
- 0.200392 0 1 tcp 1040 ------- 0 0.0 3.0 1 2
+ 0.200392 0 1 tcp 1040 ------- 0 0.0 3.0 2 3
- 0.200496 0 1 tcp 1040 ------- 0 0.0 3.0 2 3
r 0.200496 0 1 tcp 1040 ------- 0 0.0 3.0 1 2
+ 0.200496 1 2 tcp 1040 ------- 0 0.0 3.0 1 2
- 0.200496 1 2 tcp 1040 ------- 0 0.0 3.0 1 2
r 0.2006 0 1 tcp 1040 ------- 0 0.0 3.0 2 3
+ 0.2006 1 2 tcp 1040 ------- 0 0.0 3.0 2 3
- 0.201328 1 2 tcp 1040 ------- 0 0.0 3.0 2 3
r 0.201328 1 2 tcp 1040 ------- 0 0.0 3.0 1 2
+ 0.201328 2 3 tcp 1040 ------- 0 0.0 3.0 1 2
- 0.201328 2 3 tcp 1040 ------- 0 0.0 3.0 1 2
r 0.20216 1 2 tcp 1040 ------- 0 0.0 3.0 2 3
+ 0.20216 2 3 tcp 1040 ------- 0 0.0 3.0 2 3
- 0.205488 2 3 tcp 1040 ------- 0 0.0 3.0 2 3
r 0.205488 2 3 tcp 1040 ------- 0 0.0 3.0 1 2
+ 0.205488 3 2 ack 40 ------- 0 3.0 0.0 1 4
- 0.205488 3 2 ack 40 ------- 0 3.0 0.0 1 4
r 0.205648 3 2 ack 40 ------- 0 3.0 0.0 1 4
+ 0.205648 2 1 ack 40 ------- 0 3.0 0.0 1 4
- 0.205648 2 1 ack 40 ------- 0 3.0 0.0 1 4
r 0.20568 2 1 ack 40 ------- 0 3.0 0.0 1 4
+ 0.20568 1 0 ack 40 ------- 0 3.0 0.0 1 4
- 0.20568 1 0 ack 40 ------- 0 3.0 0.0 1 4
r 0.205684 1 0 ack 40 ------- 0 3.0 0.0 1 4
+ 0.205684 0 1 tcp 1040 ------- 0 0.0 3.0 3 5
- 0.205684 0 1 tcp 1040 ------- 0 0.0 3.0 3 5
+ 0.205684 0 1 tcp 1040 ------- 0 0.0 3.0 4 6
- 0.205788 0 1 tcp 1040 ------- 0 0.0 3.0 4 6
r 0.205788 0 1 tcp 1040 ------- 0 0.0 3.0 3 5
+ 0.205788 1 2 tcp 1040 ------- 0 0.0 3.0 3 5
- 0.205788 1 2 tcp 1040 ------- 0 0.0 3.0 3 5
r 0.205892 0 1 tcp 1040 ------- 0 0.0 3.0 4 6
+ 0.205892 1 2 tcp 1040 ------- 0 0.0 3.0 4 6
- 0.20662 1 2 tcp 1040 ------- 0 0.0 3.0 4 6
r 0.20662 1 2 tcp 1040 ------- 0 0.0 3.0 3 5
+ 0.20662 2 3 tcp 1040 ------- 0 0.0 3.0 3 5
r 0.207452 1 2 tcp 1040 ------- 0 0.0 3.0 4 6
+ 0.207452 2 3 tcp 1040 ------- 0 0.0 3.0 4 6
- 0.209648 2 3 tcp 1040 ------- 0 0.0 3.0 3 5
r 0.209648 2 3 tcp 1040 ------- 0 0.0 3.0 2 3
+ 0.209648 3 2 ack 40 ------- 0 3.0 0.0 2 7
- 0.209648 3 2 ack 40 ------- 0 3.0 0.0 2 7
r 0.209808 3 2 ack 40 ------- 0 3.0 0.0 2 7
+ 0.209808 2 1 ack 40 ------- 0 3.0 0.0 2 7
- 0.209808 2 1 ack 40 ------- 0 3.0 0.0 2 7
r 0.20984 2 1 ack 40 ------- 0 3.0 0.0 2 7
+ 0.20984 1 0 ack 40 ------- 0 3.0 0.0 2 7
- 0.20984 1 0 ack 40 ------- 0 3.0 0.0 2 7
r 0.209844 1 0 ack 40 ------- 0 3.0 0.0 2 7
+ 0.209844 0 1 tcp 1040 ------- 0 0.0 3.0 5 8
- 0.209844 0 1 tcp 1040 ------- 0 0.0 3.0 5 8
+ 0.209844 0 1 tcp 1040 ------- 0 0.0 3.0 6 9
- 0.209948 0 1 tcp 1040 ------- 0 0.0 3.0 6 9
r 0.209948 0 1 tcp 1040 ------- 0 0.0 3.0 5 8
+ 0.209948 1 2 tcp 1040 ------- 0 0.0 3.0 5 8
- 0.209948 1 2 tcp 1040 ------- 0 0.0 3.0 5 8
r 0.210052 0 1 tcp 1040 ------- 0 0.0 3.0 6 9
+ 0.210052 1 2 tcp 1040 ------- 0 0.0 3.0 6 9
- 0.21078 1 2 tcp 1040 ------- 0 0.0 3.0 6 9
r 0.21078 1 2 tcp 1040 ------- 0 0.0 3.0 5 8
+ 0.21078 2 3 tcp 1040 ------- 0 0.0 3.0 5 8
r 0.211612 1 2 tcp 1040 ------- 0 0.0 3.0 6 9
+ 0.211612 2 3 tcp 1040 ------- 0 0.0 3.0 6 9
- 0.213808 2 3 tcp 1040 ------- 0 0.0 3.0 4 6
r 0.213808 2 3 tcp 1040 ------- 0 0.0 3.0 3 5
+ 0.213808 3 2 ack 40 ------- 0 3.0 0.0 3 10
- 0.213808 3 2 ack 40 ------- 0 3.0 0.0 3 10
r 0.213968 3 2 ack 40 ------- 0 3.0 0.0 3 10
+ 0.213968 2 1 ack 40 ------- 0 3.0 0.0 3 10
- 0.213968 2 1 ack 40 ------- 0 3.0 0.0 3 10
r 0.214 2 1 ack 40 ------- 0 3.0 0.0 3 10
+ 0.214 1 0 ack 40 ------- 0 3.0 0.0 3 10
- 0.214 1 0 ack 40 ------- 0 3.0 0.0 3 10
r 0.214004 1 0 ack 40 ------- 0 3.0 0.0 3 10
+ 0.214004 0 1 tcp 1040 ------- 0 0.0 3.0 7 11
- 0.214004 0 1 tcp 1040 ------- 0 0.0 3.0 7 11
+ 0.214004 0 1 tcp 1040 ------- 0 0.0 3.0 8 12
- 0.214108 0 1 tcp 1040 ------- 0 0.0 3.0 8 12
r 0.214108 0 1 tcp 1040 ------- 0 0.0 3.0 7 11
+ 0.214108 1 2 tcp 1040 ------- 0 0.0 3.0 7 11
- 0.214108 1 2 tcp 1040 ------- 0 0.0 3.0 7 11
r 0.214212 0 1 tcp 1040 ------- 0 0.0 3.0 8 12
+ 0.214212 1 2 tcp 1040 ------- 0 0.0 3.0 8 12
- 0.21494 1 2 tcp 1040 ------- 0 0.0 3.0 8 12
r 0.21494 1 2 tcp 1040 ------- 0 0.0 3.0 7 11
+ 0.21494 2 3 tcp 1040 ------- 0 0.0 3.0 7 11
r 0.215772 1 2 tcp 1040 ------- 0 0.0 3.0 8 12
+ 0.215772 2 3 tcp 1040 ------- 0 0.0 3.0 8 12
- 0.217968 2 3 tcp 1040 ------- 0 0.0 3.0 5 8
r 0.217968 2 3 tcp 1040 ------- 0 0.0 3.0 4 6
+ 0.217968 3 2 ack 40 ------- 0 3.0 0.0 4 13
- 0.217968 3 2 ack 40 ------- 0 3.0 0.0 4 13
r 0.218128 3 2 ack 40 ------- 0 3.0 0.0 4 13
+ 0.218128 2 1 ack 40 ------- 0 3.0 0.0 4 13
- 0.218128 2 1 ack 40 ------- 0 3.0 0.0 4 13
r 0.21816 2 1 ack 40 ------- 0 3.0 0.0 4 13
+ 0.21816 1 0 ack 40 ------- 0 3.0 0.0 4 13
- 0.21816 1 0 ack 40 ------- 0 3.0 0.0 4 13
r 0.218164 1 0 ack 40 ------- 0 3.0 0.0 4 13
+ 0.218164 0 1 tcp 1040 ------- 0 0.0 3.0 9 14
- 0.218164 0 1 tcp 1040 ------- 0 0.0 3.0 9 14
+ 0.218164 0 1 tcp 1040 ------- 0 0.0 3.0 10 15
- 0.218268 0 1 tcp 1040 ------- 0 0.0 3.0 10 15
r 0.218268 0 1 tcp 1040 ------- 0 0.0 3.0 9 14
+ 0.218268 1 2 tcp 1040 ------- 0 0.0 3.0 9 14
- 0.218268 1 2 tcp 1040 ------- 0 0.0 3.0 9 14
r 0.218372 0 1 tcp 1040 ------- 0 0.0 3.0 10 15
+ 0.218372 1 2 tcp 1040 ------- 0 0.0 3.0 10 15
- 0.2191 1 2 tcp 1040 ------- 0 0.0 3.0 10 15
r 0.2191 1 2 tcp 1040 ------- 0 0.0 3.0 9 14
+ 0.2191 2 3 tcp 1040 ------- 0 0.0 3.0 9 14
r 0.219932 1 2 tcp 1040 ------- 0 0.0 3.0 10 15
+ 0.219932 2 3 tcp 1040 ------- 0 0.0 3.0 10 15
d 0.219932 2 3 tcp 1040 ------- 0 0.0 3.0 10 15
- 0.222128 2 3 tcp 1040 ------- 0 0.0 3.0 6 9
r 0.222128 2 3 tcp 1040 ------- 0 0.0 3.0 5 8
+ 0.222128 3 2 ack 40 ------- 0 3.0 0.0 5 16
- 0.222128 3 2 ack 40 ------- 0 3.0 0.0 5 16
r 0.222288 3 2 ack 40 ------- 0 3.0 0.0 5 16
+ 0.222288 2 1 ack 40 ------- 0 3.0 0.0 5 16
- 0.222288 2 1 ack 40 ------- 0 3.0 0.0 5 16
r 0.22232 2 1 ack 40 ------- 0 3.0 0.0 5 16
+ 0.22232 1 0 ack 40 ------- 0 3.0 0.0 5 16
- 0.22232 1 0 ack 40 ------- 0 3.0 0.0 5 16
r 0.222324 1 0 ack 40 ------- 0 3.0 0.0 5 16
+ 0.222324 0 1 tcp 1040 ------- 0 0.0 3.0 11 17
- 0.222324 0 1 tcp 1040 ------- 0 0.0 3.0 11 17
+ 0.222324 0 1 tcp 1040 ------- 0 0.0 3.0 12 18
- 0.222428 0 1 tcp 1040 ------- 0 0.0 3.0 12 18
r 0.222428 0 1 tcp 1040 ------- 0 0.0 3.0 11 17
+ 0.222428 1 2 tcp 1040 ------- 0 0.0 3.0 11 17
- 0.222428 1 2 tcp 1040 ------- 0 0.0 3.0 11 17
r 0.222532 0 1 tcp 1040 ------- 0 0.0 3.0 12 18
+ 0.222532 1 2 tcp 1040 ------- 0 0.0 3.0 12 18
- 0.22326 1 2 tcp 1040 ------- 0 0.0 3.0 12 18
r 0.22326 1 2 tcp 1040 ------- 0 0.0 3.0 11 17
+ 0.22326 2 3 tcp 1040 ------- 0 0.0 3.0 11 17
r 0.224092 1 2 tcp 1040 ------- 0 0.0 3.0 12 18
+ 0.224092 2 3 tcp 1040 ------- 0 0.0 3.0 12 18
d 0.224092 2 3 tcp 1040 ------- 0 0.0 3.0 12 18
- 0.226288 2 3 tcp 1040 ------- 0 0.0 3.0 7 11
r 0.226288 2 3 tcp 1040 ------- 0 0.0 3.0 6 9
+ 0.226288 3 2 ack 40 ------- 0 3.0 0.0 6 19
- 0.226288 3 2 ack 40 ------- 0 3.0 0.0 6 19
r 0.226448 3 2 ack 40 ------- 0 3.0 0.0 6 19
+ 0.226448 2 1 ack 40 ------- 0 3.0 0.0 6 19
- 0.226448 2 1 ack 40 ------- 0 3.0 0.0 6 19
r 0.22648 2 1 ack 40 ------- 0 3.0 0.0 6 19
+ 0.22648 1 0 ack 40 ------- 0 3.0 0.0 6 19
- 0.22648 1 0 ack 40 ------- 0 3.0 0.0 6 19
r 0.226484 1 0 ack 40 ------- 0 3.0 0.0 6 19
+ 0.226484 0 1 tcp 1040 ------- 0 0.0 3.0 13 20
- 0.226484 0 1 tcp 1040 ------- 0 0.0 3.0 13 20
+ 0.226484 0 1 tcp 1040 ------- 0 0.0 3.0 14 21
- 0.226588 0 1 tcp 1040 ------- 0 0.0 3.0 14 21
r 0.226588 0 1 tcp 1040 ------- 0 0.0 3.0 13 20
+ 0.226588 1 2 tcp 1040 ------- 0 0.0 3.0 13 20
- 0.226588 1 2 tcp 1040 ------- 0 0.0 3.0 13 20
r 0.226692 0 1 tcp 1040 ------- 0 0.0 3.0 14 21
+ 0.226692 1 2 tcp 1040 ------- 0 0.0 3.0 14 21
- 0.22742 1 2 tcp 1040 ------- 0 0.0 3.0 14 21
r 0.22742 1 2 tcp 1040 ------- 0 0.0 3.0 13 20
+ 0.22742 2 3 tcp 1040 ------- 0 0.0 3.0 13 20
r 0.228252 1 2 tcp 1040 ------- 0 0.0 3.0 14 21
+ 0.228252 2 3 tcp 1040 ------- 0 0.0 3.0 14 21
d 0.228252 2 3 tcp 1040 ------- 0 0.0 3.0 14 21
- 0.230448 2 3 tcp 1040 ------- 0 0.0 3.0 8 12
r 0.230448 2 3 tcp 1040 ------- 0 0.0 3.0 7 11
+ 0.230448 3 2 ack 40 ------- 0 3.0 0.0 7 22
- 0.230448 3 2 ack 40 ------- 0 3.0 0.0 7 22
r 0.230608 3 2 ack 40 ------- 0 3.0 0.0 7 22
+ 0.230608 2 1 ack 40 ------- 0 3.0 0.0 7 22
- 0.230608 2 1 ack 40 ------- 0 3.0 0.0 7 22
r 0.23064 2 1 ack 40 ------- 0 3.0 0.0 7 22
+ 0.23064 1 0 ack 40 ------- 0 3.0 0.0 7 22
- 0.23064 1 0 ack 40 ------- 0 3.0 0.0 7 22
r 0.230644 1 0 ack 40 ------- 0 3.0 0.0 7 22
+ 0.230644 0 1 tcp 1040 ------- 0 0.0 3.0 15 23
- 0.230644 0 1 tcp 1040 ------- 0 0.0 3.0 15 23
+ 0.230644 0 1 tcp 1040 ------- 0 0.0 3.0 16 24
- 0.230748 0 1 tcp 1040 ------- 0 0.0 3.0 16 24
r 0.230748 0 1 tcp 1040 ------- 0 0.0 3.0 15 23
+ 0.230748 1 2 tcp 1040 ------- 0 0.0 3.0 15 23
- 0.230748 1 2 tcp 1040 ------- 0 0.0 3.0 15 23
r 0.230852 0 1 tcp 1040 ------- 0 0.0 3.0 16 24
+ 0.230852 1 2 tcp 1040 ------- 0 0.0 3.0 16 24
- 0.23158 1 2 tcp 1040 ------- 0 0.0 3.0 16 24
r 0.23158 1 2 tcp 1040 ------- 0 0.0 3.0 15 23
+ 0.23158 2 3 tcp 1040 ------- 0 0.0 3.0 15 23
r 0.232412 1 2 tcp 1040 ------- 0 0.0 3.0 16 24
+ 0.232412 2 3 tcp 1040 ------- 0 0.0 3.0 16 24
d 0.232412 2 3 tcp 1040 ------- 0 0.0 3.0 16 24
- 0.234608 2 3 tcp 1040 ------- 0 0.0 3.0 9 14
r 0.234608 2 3 tcp 1040 ------- 0 0.0 3.0 8 12
+ 0.234608 3 2 ack 40 ------- 0 3.0 0.0 8 25
- 0.234608 3 2 ack 40 ------- 0 3.0 0.0 8 25
r 0.234768 3 2 ack 40 ------- 0 3.0 0.0 8 25
+ 0.234768 2 1 ack 40 ------- 0 3.0 0.0 8 25
- 0.234768 2 1 ack 40 ------- 0 3.0 0.0 8 25
r 0.2348 2 1 ack 40 ------- 0 3.0 0.0 8 25
+ 0.2348 1 0 ack 40 ------- 0 3.0 0.0 8 25
- 0.2348 1 0 ack 40 ------- 0 3.0 0.0 8 25
r 0.234804 1 0 ack 40 ------- 0 3.0 0.0 8 25
+ 0.234804 0 1 tcp 1040 ------- 0 0.0 3.0 17 26
- 0.234804 0 1 tcp 1040 ------- 0 0.0 3.0 17 26
+ 0.234804 0 1 tcp 1040 ------- 0 0.0 3.0 18 27
- 0.234908 0 1 tcp 1040 ------- 0 0.0 3.0 18 27
r 0.234908 0 1 tcp 1040 ------- 0 0.0 3.0 17 26
+ 0.234908 1 2 tcp 1040 ------- 0 0.0 3.0 17 26
- 0.234908 1 2 tcp 1040 ------- 0 0.0 3.0 17 26
r 0.235012 0 1 tcp 1040 ------- 0 0.0 3.0 18 27
+ 0.235012 1 2 tcp 1040 ------- 0 0.0 3.0 18 27
- 0.23574 1 2 tcp 1040 ------- 0 0.0 3.0 18 27
r 0.23574 1 2 tcp 1040 ------- 0 0.0 3.0 17 26
+ 0.23574 2 3 tcp 1040 ------- 0 0.0 3.0 17 26
r 0.236572 1 2 tcp 1040 ------- 0 0.0 3.0 18 27
+ 0.236572 2 3 tcp 1040 ------- 0 0.0 3.0 18 27
d 0.236572 2 3 tcp 1040 ------- 0 0.0 3.0 18 27
- 0.238768 2 3 tcp 1040 ------- 0 0.0 3.0 11 17
r 0.238768 2 3 tcp 1040 ------- 0 0.0 3.0 9 14
+ 0.238768 3 2 ack 40 ------- 0 3.0 0.0 9 28
- 0.238768 3 2 ack 40 ------- 0 3.0 0.0 9 28
r 0.238928 3 2 ack 40 ------- 0 3.0 0.0 9 28
+ 0.238928 2 1 ack 40 ------- 0 3.0 0.0 9 28
- 0.238928 2 1 ack 40 ------- 0 3.0 0.0 9 28
r 0.23896 2 1 ack 40 ------- 0 3.0 0.0 9 28
+ 0.23896 1 0 ack 40 ------- 0 3.0 0.0 9 28
- 0.23896 1 0 ack 40 ------- 0 3.0 0.0 9 28
r 0.238964 1 0 ack 40 ------- 0 3.0 0.0 9 28
+ 0.238964 0 1 tcp 1040 ------- 0 0.0 3.0 19 29
- 0.238964 0 1 tcp 1040 ------- 0 0.0 3.0 19 29
+ 0.238964 0 1 tcp 1040 ------- 0 0.0 3.0 20 30
- 0.239068 0 1 tcp 1040 ------- 0 0.0 3.0 20 30
r 0.239068 0 1 tcp 1040 ------- 0 0.0 3.0 19 29
+ 0.239068 1 2 tcp 1040 ------- 0 0.0 3.0 19 29
- 0.239068 1 2 tcp 1040 ------- 0 0.0 3.0 19 29
r 0.239172 0 1 tcp 1040 ------- 0 0.0 3.0 20 30
+ 0.239172 1 2 tcp 1040 ------- 0 0.0 3.0 20 30
- 0.2399 1 2 tcp 1040 ------- 0 0.0 3.0 20 30
r 0.2399 1 2 tcp 1040 ------- 0 0.0 3.0 19 29
+ 0.2399 2 3 tcp 1040 ------- 0 0.0 3.0 19 29
r 0.240732 1 2 tcp 1040 ------- 0 0.0 3.0 20 30
+ 0.240732 2 3 tcp 1040 ------- 0 0.0 3.0 20 30
d 0.240732 2 3 tcp 1040 ------- 0 0.0 3.0 20 30
- 0.242928 2 3 tcp 1040 ------- 0 0.0 3.0 13 20
r 0.242928 2 3 tcp 1040 ------- 0 0.0 3.0 11 17
+ 0.242928 3 2 ack 40 ------- 0 3.0 0.0 9 31
- 0.242928 3 2 ack 40 ------- 0 3.0 0.0 9 31
r 0.243088 3 2 ack 40 ------- 0 3.0 0.0 9 31
+ 0.243088 2 1 ack 40 ------- 0 3.0 0.0 9 31
- 0.243088 2 1 ack 40 ------- 0 3.0 0.0 9 31
r 0.24312 2 1 ack 40 ------- 0 3.0 0.0 9 31
+ 0.24312 1 0 ack 40 ------- 0 3.0 0.0 9 31
- 0.24312 1 0 ack 40 ------- 0 3.0 0.0 9 31
r 0.243124 1 0 ack 40 ------- 0 3.0 0.0 9 31
+ 0.243124 0 1 tcp 1040 ------- 0 0.0 3.0 21 32
- 0.243124 0 1 tcp 1040 ------- 0 0.0 3.0 21 32
r 0.243228 0 1 tcp 1040 ------- 0 0.0 3.0 21 32
+ 0.243228 1 2 tcp 1040 ------- 0 0.0 3.0 21 32
- 0.243228 1 2 tcp 1040 ------- 0 0.0 3.0 21 32
r 0.24406 1 2 tcp 1040 ------- 0 0.0 3.0 21 32
+ 0.24406 2 3 tcp 1040 ------- 0 0.0 3.0 21 32
- 0.247088 2 3 tcp 1040 ------- 0 0.0 3.0 15 23
r 0.247088 2 3 tcp 1040 ------- 0 0.0 3.0 13 20
+ 0.247088 3 2 ack 40 ------- 0 3.0 0.0 9 33
- 0.247088 3 2 ack 40 ------- 0 3.0 0.0 9 33
r 0.247248 3 2 ack 40 ------- 0 3.0 0.0 9 33
+ 0.247248 2 1 ack 40 ------- 0 3.0 0.0 9 33
- 0.247248 2 1 ack 40 ------- 0 3.0 0.0 9 33
r 0.24728 2 1 ack 40 ------- 0 3.0 0.0 9 33
+ 0.24728 1 0 ack 40 ------- 0 3.0 0.0 9 33
- 0.24728 1 0 ack 40 ------- 0 3.0 0.0 9 33
r 0.247284 1 0 ack 40 ------- 0 3.0 0.0 9 33
+ 0.247284 0 1 tcp 1040 ------- 0 0.0 3.0 22 34
- 0.247284 0 1 tcp 1040 ------- 0 0.0 3.0 22 34
r 0.247388 0 1 tcp 1040 ------- 0 0.0 3.0 22 34
+ 0.247388 1 2 tcp 1040 ------- 0 0.0 3.0 22 34
- 0.247388 1 2 tcp 1040 ------- 0 0.0 3.0 22 34
r 0.24822 1 2 tcp 1040 ------- 0 0.0 3.0 22 34
+ 0.24822 2 3 tcp 1040 ------- 0 0.0 3.0 22 34
- 0.251248 2 3 tcp 1040 ------- 0 0.0 3.0 17 26
r 0.251248 2 3 tcp 1040 ------- 0 0.0 3.0 15 23
+ 0.251248 3 2 ack 40 ------- 0 3.0 0.0 9 35
- 0.251248 3 2 ack 40 ------- 0 3.0 0.0 9 35
r 0.251408 3 2 ack 40 ------- 0 3.0 0.0 9 35
+ 0.251408 2 1 ack 40 ------- 0 3.0 0.0 9 35
- 0.251408 2 1 ack 40 ------- 0 3.0 0.0 9 35
r 0.25144 2 1 ack 40 ------- 0 3.0 0.0 9 35
+ 0.25144 1 0 ack 40 ------- 0 3.0 0.0 9 35
- 0.25144 1 0 ack 40 ------- 0 3.0 0.0 9 35
r 0.251444 1 0 ack 40 ------- 0 3.0 0.0 9 35
+ 0.251444 0 1 tcp 1040 ---A--- 0 0.0 3.0 10 36
- 0.251444 0 1 tcp 1040 ---A--- 0 0.0 3.0 10 36
r 0.251548 0 1 tcp 1040 ---A--- 0 0.0 3.0 10 36
+ 0.251548 1 2 tcp 1040 ---A--- 0 0.0 3.0 10 36
- 0.251548 1 2 tcp 1040 ---A--- 0 0.0 3.0 10 36
r 0.25238 1 2 tcp 1040 ---A--- 0 0.0 3.0 10 36
+ 0.25238 2 3 tcp 1040 ---A--- 0 0.0 3.0 10 36
- 0.255408 2 3 tcp 1040 ------- 0 0.0 3.0 19 29
r 0.255408 2 3 tcp 1040 ------- 0 0.0 3.0 17 26
+ 0.255408 3 2 ack 40 ------- 0 3.0 0.0 9 37
- 0.255408 3 2 ack 40 ------- 0 3.0 0.0 9 37
r 0.255568 3 2 ack 40 ------- 0 3.0 0.0 9 37
+ 0.255568 2 1 ack 40 ------- 0 3.0 0.0 9 37
- 0.255568 2 1 ack 40 ------- 0 3.0 0.0 9 37
r 0.2556 2 1 ack 40 ------- 0 3.0 0.0 9 37
+ 0.2556 1 0 ack 40 ------- 0 3.0 0.0 9 37
- 0.2556 1 0 ack 40 ------- 0 3.0 0.0 9 37
r 0.255604 1 0 ack 40 ------- 0 3.0 0.0 9 37
- 0.259568 2 3 tcp 1040 ------- 0 0.0 3.0 21 32
r 0.259568 2 3 tcp 1040 ------- 0 0.0 3.0 19 29
+ 0.259568 3 2 ack 40 ------- 0 3.0 0.0 9 38
- 0.259568 3 2 ack 40 ------- 0 3.0 0.0 9 38
r 0.259728 3 2 ack 40 ------- 0 3.0 0.0 9 38
+ 0.259728 2 1 ack 40 ------- 0 3.0 0.0 9 38
- 0.259728 2 1 ack 40 ------- 0 3.0 0.0 9 38
r 0.25976 2 1 ack 40 ------- 0 3.0 0.0 9 38
+ 0.25976 1 0 ack 40 ------- 0 3.0 0.0 9 38
- 0.25976 1 0 ack 40 ------- 0 3.0 0.0 9 38
r 0.259764 1 0 ack 40 ------- 0 3.0 0.0 9 38
- 0.263728 2 3 tcp 1040 ------- 0 0.0 3.0 22 34
r 0.263728 2 3 tcp 1040 ------- 0 0.0 3.0 21 32
+ 0.263728 3 2 ack 40 ------- 0 3.0 0.0 9 39
- 0.263728 3 2 ack 40 ------- 0 3.0 0.0 9 39
r 0.263888 3 2 ack 40 ------- 0 3.0 0.0 9 39
+ 0.263888 2 1 ack 40 ------- 0 3.0 0.0 9 39
- 0.263888 2 1 ack 40 ------- 0 3.0 0.0 9 39
r 0.26392 2 1 ack 40 ------- 0 3.0 0.0 9 39
+ 0.26392 1 0 ack 40 ------- 0 3.0 0.0 9 39
- 0.26392 1 0 ack 40 ------- 0 3.0 0.0 9 39
r 0.263924 1 0 ack 40 ------- 0 3.0 0.0 9 39
- 0.267888 2 3 tcp 1040 ---A--- 0 0.0 3.0 10 36
r 0.267888 2 3 tcp 1040 ------- 0 0.0 3.0 22 34
+ 0.267888 3 2 ack 40 ------- 0 3.0 0.0 9 40
- 0.267888 3 2 ack 40 ------- 0 3.0 0.0 9 40
r 0.268048 3 2 ack 40 ------- 0 3.0 0.0 9 40
+ 0.268048 2 1 ack 40 ------- 0 3.0 0.0 9 40
- 0.268048 2 1 ack 40 ------- 0 3.0 0.0 9 40
r 0.26808 2 1 ack 40 ------- 0 3.0 0.0 9 40
+ 0.26808 1 0 ack 40 ------- 0 3.0 0.0 9 40
- 0.26808 1 0 ack 40 ------- 0 3.0 0.0 9 40
r 0.268084 1 0 ack 40 ------- 0 3.0 0.0 9 40
r 0.272048 2 3 tcp 1040 ---A--- 0 0.0 3.0 10 36
+ 0.272048 3 2 ack 40 ------- 0 3.0 0.0 11 41
- 0.272048 3 2 ack 40 ------- 0 3.0 0.0 11 41
r 0.272208 3 2 ack 40 ------- 0 3.0 0.0 11 41
+ 0.272208 2 1 ack 40 ------- 0 3.0 0.0 11 41
- 0.272208 2 1 ack 40 ------- 0 3.0 0.0 11 41
r 0.27224 2 1 ack 40 ------- 0 3.0 0.0 11 41
+ 0.27224 1 0 ack 40 ------- 0 3.0 0.0 11 41
- 0.27224 1 0 ack 40 ------- 0 3.0 0.0 11 41
r 0.272244 1 0 ack 40 ------- 0 3.0 0.0 11 41
+ 0.272244 0 1 tcp 1040 ------- 0 0.0 3.0 12 42
- 0.272244 0 1 tcp 1040 ------- 0 0.0 3.0 12 42
+ 0.272244 0 1 tcp 1040 ------- 0 0.0 3.0 13 43
- 0.272348 0 1 tcp 1040 ------- 0 0.0 3.0 13 43
r 0.272348 0 1 tcp 1040 ------- 0 0.0 3.0 12 42
+ 0.272348 1 2 tcp 1040 ------- 0 0.0 3.0 12 42
- 0.272348 1 2 tcp 1040 ------- 0 0.0 3.0 12 42
r 0.272452 0 1 tcp 1040 ------- 0 0.0 3.0 13 43
+ 0.272452 1 2 tcp 1040 ------- 0 0.0 3.0 13 43
- 0.27318 1 2 tcp 1040 ------- 0 0.0 3.0 13 43
r 0.27318 1 2 tcp 1040 ------- 0 0.0 3.0 12 42
+ 0.27318 2 3 tcp 1040 ------- 0 0.0 3.0 12 42
- 0.27318 2 3 tcp 1040 ------- 0 0.0 3.0 12 42
r 0.274012 1 2 tcp 1040 ------- 0 0.0 3.0 13 43
+ 0.274012 2 3 tcp 1040 ------- 0 0.0 3.0 13 43
- 0.27734 2 3 tcp 1040 ------- 0 0.0 3.0 13 43
r 0.27734 2 3 tcp 1040 ------- 0 0.0 3.0 12 42
+ 0.27734 3 2 ack 40 ------- 0 3.0 0.0 13 44
- 0.27734 3 2 ack 40 ------- 0 3.0 0.0 13 44
r 0.2775 3 2 ack 40 ------- 0 3.0 0.0 13 44
+ 0.2775 2 1 ack 40 ------- 0 3.0 0.0 13 44
- 0.2775 2 1 ack 40 ------- 0 3.0 0.0 13 44
r 0.277532 2 1 ack 40 ------- 0 3.0 0.0 13 44
+ 0.277532 1 0 ack 40 ------- 0 3.0 0.0 13 44
- 0.277532 1 0 ack 40 ------- 0 3.0 0.0 13 44
r 0.277536 1 0 ack 40 ------- 0 3.0 0.0 13 44
+ 0.277536 0 1 tcp 1040 ------- 0 0.0 3.0 14 45
- 0.277536 0 1 tcp 1040 ------- 0 0.0 3.0 14 45
+ 0.277536 0 1 tcp 1040 ------- 0 0.0 3.0 15 46
+ 0.277536 0 1 tcp 1040 ------- 0 0.0 3.0 16 47
- 0.27764 0 1 tcp 1040 ------- 0 0.0 3.0 15 46
r 0.27764 0 1 tcp 1040 ------- 0 0.0 3.0 14 45
+ 0.27764 1 2 tcp 1040 ------- 0 0.0 3.0 14 45
- 0.27764 1 2 tcp 1040 ------- 0 0.0 3.0 14 45
- 0.277744 0 1 tcp 1040 ------- 0 0.0 3.0 16 47
r 0.277744 0 1 tcp 1040 ------- 0 0.0 3.0 15 46
+ 0.277744 1 2 tcp 1040 ------- 0 0.0 3.0 15 46
r 0.277848 0 1 tcp 1040 ------- 0 0.0 3.0 16 47
+ 0.277848 1 2 tcp 1040 ------- 0 0.0 3.0 16 47
- 0.278472 1 2 tcp 1040 ------- 0 0.0 3.0 15 46
r 0.278472 1 2 tcp 1040 ------- 0 0.0 3.0 14 45
+ 0.278472 2 3 tcp 1040 ------- 0 0.0 3.0 14 45
- 0.279304 1 2 tcp 1040 ------- 0 0.0 3.0 16 47
r 0.279304 1 2 tcp 1040 ------- 0 0.0 3.0 15 46
+ 0.279304 2 3 tcp 1040 ------- 0 0.0 3.0 15 46
r 0.280136 1 2 tcp 1040 ------- 0 0.0 3.0 16 47
+ 0.280136 2 3 tcp 1040 ------- 0 0.0 3.0 16 47
- 0.2815 2 3 tcp 1040 ------- 0 0.0 3.0 14 45
r 0.2815 2 3 tcp 1040 ------- 0 0.0 3.0 13 43
+ 0.2815 3 2 ack 40 ------- 0 3.0 0.0 13 48
- 0.2815 3 2 ack 40 ------- 0 3.0 0.0 13 48
r 0.28166 3 2 ack 40 ------- 0 3.0 0.0 13 48
+ 0.28166 2 1 ack 40 ------- 0 3.0 0.0 13 48
- 0.28166 2 1 ack 40 ------- 0 3.0 0.0 13 48
r 0.281692 2 1 ack 40 ------- 0 3.0 0.0 13 48
+ 0.281692 1 0 ack 40 ------- 0 3.0 0.0 13 48
- 0.281692 1 0 ack 40 ------- 0 3.0 0.0 13 48
r 0.281696 1 0 ack 40 ------- 0 3.0 0.0 13 48
+ 0.281696 0 1 tcp 1040 ------- 0 0.0 3.0 17 49
- 0.281696 0 1 tcp 1040 ------- 0 0.0 3.0 17 49
r 0.2818 0 1 tcp 1040 ------- 0 0.0 3.0 17 49
+ 0.2818 1 2 tcp 1040 ------- 0 0.0 3.0 17 49
- 0.2818 1 2 tcp 1040 ------- 0 0.0 3.0 17 49
r 0.282632 1 2 tcp 1040 ------- 0 0.0 3.0 17 49
+ 0.282632 2 3 tcp 1040 ------- 0 0.0 3.0 17 49
- 0.28566 2 3 tcp 1040 ------- 0 0.0 3.0 15 46
r 0.28566 2 3 tcp 1040 ------- 0 0.0 3.0 14 45
+ 0.28566 3 2 ack 40 ------- 0 3.0 0.0 15 50
- 0.28566 3 2 ack 40 ------- 0 3.0 0.0 15 50
r 0.28582 3 2 ack 40 ------- 0 3.0 0.0 15 50
+ 0.28582 2 1 ack 40 ------- 0 3.0 0.0 15 50
- 0.28582 2 1 ack 40 ------- 0 3.0 0.0 15 50
r 0.285852 2 1 ack 40 ------- 0 3.0 0.0 15 50
+ 0.285852 1 0 ack 40 ------- 0 3.0 0.0 15 50
- 0.285852 1 0 ack 40 ------- 0 3.0 0.0 15 50
r 0.285856 1 0 ack 40 ------- 0 3.0 0.0 15 50
+ 0.285856 0 1 tcp 1040 ------- 0 0.0 3.0 18 51
- 0.285856 0 1 tcp 1040 ------- 0 0.0 3.0 18 51
+ 0.285856 0 1 tcp 1040 ------- 0 0.0 3.0 19 52
- 0.28596 0 1 tcp 1040 ------- 0 0.0 3.0 19 52
r 0.28596 0 1 tcp 1040 ------- 0 0.0 3.0 18 51
+ 0.28596 1 2 tcp 1040 ------- 0 0.0 3.0 18 51
- 0.28596 1 2 tcp 1040 ------- 0 0.0 3.0 18 51
r 0.286064 0 1 tcp 1040 ------- 0 0.0 3.0 19 52
+ 0.286064 1 2 tcp 1040 ------- 0 0.0 3.0 19 52
- 0.286792 1 2 tcp 1040 ------- 0 0.0 3.0 19 52
r 0.286792 1 2 tcp 1040 ------- 0 0.0 3.0 18 51
+ 0.286792 2 3 tcp 1040 ------- 0 0.0 3.0 18 51
r 0.287624 1 2 tcp 1040 ------- 0 0.0 3.0 19 52
+ 0.287624 2 3 tcp 1040 ------- 0 0.0 3.0 19 52
- 0.28982 2 3 tcp 1040 ------- 0 0.0 3.0 16 47
r 0.28982 2 3 tcp 1040 ------- 0 0.0 3.0 15 46
+ 0.28982 3 2 ack 40 ------- 0 3.0 0.0 15 53
- 0.28982 3 2 ack 40 ------- 0 3.0 0.0 15 53
r 0.28998 3 2 ack 40 ------- 0 3.0 0.0 15 53
+ 0.28998 2 1 ack 40 ------- 0 3.0 0.0 15 53
- 0.28998 2 1 ack 40 ------- 0 3.0 0.0 15 53
r 0.290012 2 1 ack 40 ------- 0 3.0 0.0 15 53
+ 0.290012 1 0 ack 40 ------- 0 3.0 0.0 15 53
- 0.290012 1 0 ack 40 ------- 0 3.0 0.0 15 53
r 0.290016 1 0 ack 40 ------- 0 3.0 0.0 15 53
+ 0.290016 0 1 tcp 1040 ------- 0 0.0 3.0 20 54
- 0.290016 0 1 tcp 1040 ------- 0 0.0 3.0 20 54
r 0.29012 0 1 tcp 1040 ------- 0 0.0 3.0 20 54
+ 0.29012 1 2 tcp 1040 ------- 0 0.0 3.0 20 54
- 0.29012 1 2 tcp 1040 ------- 0 0.0 3.0 20 54
r 0.290952 1 2 tcp 1040 ------- 0 0.0 3.0 20 54
+ 0.290952 2 3 tcp 1040 ------- 0 0.0 3.0 20 54
- 0.29398 2 3 tcp 1040 ------- 0 0.0 3.0 17 49
r 0.29398 2 3 tcp 1040 ------- 0 0.0 3.0 16 47
+ 0.29398 3 2 ack 40 ------- 0 3.0 0.0 17 55
- 0.29398 3 2 ack 40 ------- 0 3.0 0.0 17 55
r 0.29414 3 2 ack 40 ------- 0 3.0 0.0 17 55
+ 0.29414 2 1 ack 40 ------- 0 3.0 0.0 17 55
- 0.29414 2 1 ack 40 ------- 0 3.0 0.0 17 55
r 0.294172 2 1 ack 40 ------- 0 3.0 0.0 17 55
+ 0.294172 1 0 ack 40 ------- 0 3.0 0.0 17 55
- 0.294172 1 0 ack 40 ------- 0 3.0 0.0 17 55
r 0.294176 1 0 ack 40 ------- 0 3.0 0.0 17 55
+ 0.294176 0 1 tcp 1040 ------- 0 0.0 3.0 21 56
- 0.294176 0 1 tcp 1040 ------- 0 0.0 3.0 21 56
+ 0.294176 0 1 tcp 1040 ------- 0 0.0 3.0 22 57
- 0.29428 0 1 tcp 1040 ------- 0 0.0 3.0 22 57
r 0.29428 0 1 tcp 1040 ------- 0 0.0 3.0 21 56
+ 0.29428 1 2 tcp 1040 ------- 0 0.0 3.0 21 56
- 0.29428 1 2 tcp 1040 ------- 0 0.0 3.0 21 56
r 0.294384 0 1 tcp 1040 ------- 0 0.0 3.0 22 57
+ 0.294384 1 2 tcp 1040 ------- 0 0.0 3.0 22 57
- 0.295112 1 2 tcp 1040 ------- 0 0.0 3.0 22 57
r 0.295112 1 2 tcp 1040 ------- 0 0.0 3.0 21 56
+ 0.295112 2 3 tcp 1040 ------- 0 0.0 3.0 21 56
r 0.295944 1 2 tcp 1040 ------- 0 0.0 3.0 22 57
+ 0.295944 2 3 tcp 1040 ------- 0 0.0 3.0 22 57
d 0.295944 2 3 tcp 1040 ------- 0 0.0 3.0 22 57
- 0.29814 2 3 tcp 1040 ------- 0 0.0 3.0 18 51
r 0.29814 2 3 tcp 1040 ------- 0 0.0 3.0 17 49
+ 0.29814 3 2 ack 40 ------- 0 3.0 0.0 17 58
- 0.29814 3 2 ack 40 ------- 0 3.0 0.0 17 58
r 0.2983 3 2 ack 40 ------- 0 3.0 0.0 17 58
+ 0.2983 2 1 ack 40 ------- 0 3.0 0.0 17 58
- 0.2983 2 1 ack 40 ------- 0 3.0 0.0 17 58
r 0.298332 2 1 ack 40 ------- 0 3.0 0.0 17 58
+ 0.298332 1 0 ack 40 ------- 0 3.0 0.0 17 58
- 0.298332 1 0 ack 40 ------- 0 3.0 0.0 17 58
r 0.298336 1 0 ack 40 ------- 0 3.0 0.0 17 58
+ 0.298336 0 1 tcp 1040 ------- 0 0.0 3.0 23 59
- 0.298336 0 1 tcp 1040 ------- 0 0.0 3.0 23 59
r 0.29844 0 1 tcp 1040 ------- 0 0.0 3.0 23 59
+ 0.29844 1 2 tcp 1040 ------- 0 0.0 3.0 23 59
- 0.29844 1 2 tcp 1040 ------- 0 0.0 3.0 23 59
r 0.299272 1 2 tcp 1040 ------- 0 0.0 3.0 23 59
+ 0.299272 2 3 tcp 1040 ------- 0 0.0 3.0 23 59
- 0.3023 2 3 tcp 1040 ------- 0 0.0 3.0 19 52
r 0.3023 2 3 tcp 1040 ------- 0 0.0 3.0 18 51
+ 0.3023 3 2 ack 40 ------- 0 3.0 0.0 19 60
- 0.3023 3 2 ack 40 ------- 0 3.0 0.0 19 60
r 0.30246 3 2 ack 40 ------- 0 3.0 0.0 19 60
+ 0.30246 2 1 ack 40 ------- 0 3.0 0.0 19 60
- 0.30246 2 1 ack 40 ------- 0 3.0 0.0 19 60
r 0.302492 2 1 ack 40 ------- 0 3.0 0.0 19 60
+ 0.302492 1 0 ack 40 ------- 0 3.0 0.0 19 60
- 0.302492 1 0 ack 40 ------- 0 3.0 0.0 19 60
r 0.302496 1 0 ack 40 ------- 0 3.0 0.0 19 60
+ 0.302496 0 1 tcp 1040 ------- 0 0.0 3.0 24 61
- 0.302496 0 1 tcp 1040 ------- 0 0.0 3.0 24 61
r 0.3026 0 1 tcp 1040 ------- 0 0.0 3.0 24 61
+ 0.3026 1 2 tcp 1040 ------- 0 0.0 3.0 24 61
- 0.3026 1 2 tcp 1040 ------- 0 0.0 3.0 24 61
r 0.303432 1 2 tcp 1040 ------- 0 0.0 3.0 24 61
+ 0.303432 2 3 tcp 1040 ------- 0 0.0 3.0 24 61
- 0.30646 2 3 tcp 1040 ------- 0 0.0 3.0 20 54
r 0.30646 2 3 tcp 1040 ------- 0 0.0 3.0 19 52
+ 0.30646 3 2 ack 40 ------- 0 3.0 0.0 19 62
- 0.30646 3 2 ack 40 ------- 0 3.0 0.0 19 62
r 0.30662 3 2 ack 40 ------- 0 3.0 0.0 19 62
+ 0.30662 2 1 ack 40 ------- 0 3.0 0.0 19 62
- 0.30662 2 1 ack 40 ------- 0 3.0 0.0 19 62
r 0.306652 2 1 ack 40 ------- 0 3.0 0.0 19 62
+ 0.306652 1 0 ack 40 ------- 0 3.0 0.0 19 62
- 0.306652 1 0 ack 40 ------- 0 3.0 0.0 19 62
r 0.306656 1 0 ack 40 ------- 0 3.0 0.0 19 62
+ 0.306656 0 1 tcp 1040 ------- 0 0.0 3.0 25 63
- 0.306656 0 1 tcp 1040 ------- 0 0.0 3.0 25 63
r 0.30676 0 1 tcp 1040 ------- 0 0.0 3.0 25 63
+ 0.30676 1 2 tcp 1040 ------- 0 0.0 3.0 25 63
- 0.30676 1 2 tcp 1040 ------- 0 0.0 3.0 25 63
r 0.307592 1 2 tcp 1040 ------- 0 0.0 3.0 25 63
+ 0.307592 2 3 tcp 1040 ------- 0 0.0 3.0 25 63
- 0.31062 2 3 tcp 1040 ------- 0 0.0 3.0 21 56
r 0.31062 2 3 tcp 1040 ------- 0 0.0 3.0 20 54
+ 0.31062 3 2 ack 40 ------- 0 3.0 0.0 22 64
- 0.31062 3 2 ack 40 ------- 0 3.0 0.0 22 64
r 0.31078 3 2 ack 40 ------- 0 3.0 0.0 22 64
+ 0.31078 2 1 ack 40 ------- 0 3.0 0.0 22 64
- 0.31078 2 1 ack 40 ------- 0 3.0 0.0 22 64
r 0.310812 2 1 ack 40 ------- 0 3.0 0.0 22 64
+ 0.310812 1 0 ack 40 ------- 0 3.0 0.0 22 64
- 0.310812 1 0 ack 40 ------- 0 3.0 0.0 22 64
r 0.310816 1 0 ack 40 ------- 0 3.0 0.0 22 64
+ 0.310816 0 1 tcp 1040 ------- 0 0.0 3.0 26 65
- 0.310816 0 1 tcp 1040 ------- 0 0.0 3.0 26 65
+ 0.310816 0 1 tcp 1040 ------- 0 0.0 3.0 27 66
- 0.31092 0 1 tcp 1040 ------- 0 0.0 3.0 27 66
r 0.31092 0 1 tcp 1040 ------- 0 0.0 3.0 26 65
+ 0.31092 1 2 tcp 1040 ------- 0 0.0 3.0 26 65
- 0.31092 1 2 tcp 1040 ------- 0 0.0 3.0 26 65
r 0.311024 0 1 tcp 1040 ------- 0 0.0 3.0 27 66
+ 0.311024 1 2 tcp 1040 ------- 0 0.0 3.0 27 66
- 0.311752 1 2 tcp 1040 ------- 0 0.0 3.0 27 66
r 0.311752 1 2 tcp 1040 ------- 0 0.0 3.0 26 65
+ 0.311752 2 3 tcp 1040 ------- 0 0.0 3.0 26 65
r 0.312584 1 2 tcp 1040 ------- 0 0.0 3.0 27 66
+ 0.312584 2 3 tcp 1040 ------- 0 0.0 3.0 27 66
d 0.312584 2 3 tcp 1040 ------- 0 0.0 3.0 27 66
- 0.31478 2 3 tcp 1040 ------- 0 0.0 3.0 23 59
r 0.31478 2 3 tcp 1040 ------- 0 0.0 3.0 21 56
+ 0.31478 3 2 ack 40 ------- 0 3.0 0.0 22 67
- 0.31478 3 2 ack 40 ------- 0 3.0 0.0 22 67
r 0.31494 3 2 ack 40 ------- 0 3.0 0.0 22 67
+ 0.31494 2 1 ack 40 ------- 0 3.0 0.0 22 67
- 0.31494 2 1 ack 40 ------- 0 3.0 0.0 22 67
r 0.314972 2 1 ack 40 ------- 0 3.0 0.0 22 67
+ 0.314972 1 0 ack 40 ------- 0 3.0 0.0 22 67
- 0.314972 1 0 ack 40 ------- 0 3.0 0.0 22 67
r 0.314976 1 0 ack 40 ------- 0 3.0 0.0 22 67
+ 0.314976 0 1 tcp 1040 ------- 0 0.0 3.0 28 68
- 0.314976 0 1 tcp 1040 ------- 0 0.0 3.0 28 68
r 0.31508 0 1 tcp 1040 ------- 0 0.0 3.0 28 68
+ 0.31508 1 2 tcp 1040 ------- 0 0.0 3.0 28 68
- 0.31508 1 2 tcp 1040 ------- 0 0.0 3.0 28 68
r 0.315912 1 2 tcp 1040 ------- 0 0.0 3.0 28 68
+ 0.315912 2 3 tcp 1040 ------- 0 0.0 3.0 28 68
- 0.31894 2 3 tcp 1040 ------- 0 0.0 3.0 24 61
r 0.31894 2 3 tcp 1040 ------- 0 0.0 3.0 23 59
+ 0.31894 3 2 ack 40 ------- 0 3.0 0.0 23 69
- 0.31894 3 2 ack 40 ------- 0 3.0 0.0 23 69
r 0.3191 3 2 ack 40 ------- 0 3.0 0.0 23 69
+ 0.3191 2 1 ack 40 ------- 0 3.0 0.0 23 69
- 0.3191 2 1 ack 40 ------- 0 3.0 0.0 23 69
r 0.319132 2 1 ack 40 ------- 0 3.0 0.0 23 69
+ 0.319132 1 0 ack 40 ------- 0 3.0 0.0 23 69
- 0.319132 1 0 ack 40 ------- 0 3.0 0.0 23 69
r 0.319136 1 0 ack 40 ------- 0 3.0 0.0 23 69
- 0.3231 2 3 tcp 1040 ------- 0 0.0 3.0 25 63
r 0.3231 2 3 tcp 1040 ------- 0 0.0 3.0 24 61
+ 0.3231 3 2 ack 40 ------- 0 3.0 0.0 24 70
- 0.3231 3 2 ack 40 ------- 0 3.0 0.0 24 70
r 0.32326 3 2 ack 40 ------- 0 3.0 0.0 24 70
+ 0.32326 2 1 ack 40 ------- 0 3.0 0.0 24 70
- 0.32326 2 1 ack 40 ------- 0 3.0 0.0 24 70
r 0.323292 2 1 ack 40 ------- 0 3.0 0.0 24 70
+ 0.323292 1 0 ack 40 ------- 0 3.0 0.0 24 70
- 0.323292 1 0 ack 40 ------- 0 3.0 0.0 24 70
r 0.323296 1 0 ack 40 ------- 0 3.0 0.0 24 70
+ 0.323296 0 1 tcp 1040 ------- 0 0.0 3.0 29 71
- 0.323296 0 1 tcp 1040 ------- 0 0.0 3.0 29 71
r 0.3234 0 1 tcp 1040 ------- 0 0.0 3.0 29 71
+ 0.3234 1 2 tcp 1040 ------- 0 0.0 3.0 29 71
- 0.3234 1 2 tcp 1040 ------- 0 0.0 3.0 29 71
r 0.324232 1 2 tcp 1040 ------- 0 0.0 3.0 29 71
+ 0.324232 2 3 tcp 1040 ------- 0 0.0 3.0 29 71
- 0.32726 2 3 tcp 1040 ------- 0 0.0 3.0 26 65
r 0.32726 2 3 tcp 1040 ------- 0 0.0 3.0 25 63
+ 0.32726 3 2 ack 40 ------- 0 3.0 0.0 25 72
- 0.32726 3 2 ack 40 ------- 0 3.0 0.0 25 72
r 0.32742 3 2 ack 40 ------- 0 3.0 0.0 25 72
+ 0.32742 2 1 ack 40 ------- 0 3.0 0.0 25 72
- 0.32742 2 1 ack 40 ------- 0 3.0 0.0 25 72
r 0.327452 2 1 ack 40 ------- 0 3.0 0.0 25 72
+ 0.327452 1 0 ack 40 ------- 0 3.0 0.0 25 72
- 0.327452 1 0 ack 40 ------- 0 3.0 0.0 25 72
r 0.327456 1 0 ack 40 ------- 0 3.0 0.0 25 72
+ 0.327456 0 1 tcp 1040 ------- 0 0.0 3.0 30 73
- 0.327456 0 1 tcp 1040 ------- 0 0.0 3.0 30 73
r 0.32756 0 1 tcp 1040 ------- 0 0.0 3.0 30 73
+ 0.32756 1 2 tcp 1040 ------- 0 0.0 3.0 30 73
- 0.32756 1 2 tcp 1040 ------- 0 0.0 3.0 30 73