n -t 0 -s 0 -S DLABEL -l "TCP Source" -L ""
n -t 0 -s 3 -S DLABEL -l "TCP Sink" -L ""
n -t 0 -s 1 -S DLABEL -l "UDP Source" -L ""
n -t 0 -s 2 -S DLABEL -l "UDP Sink" -L ""
V -t * -v 1.0a5 -a 0
A -t * -n 1 -p 0 -o 0x7fffffff -c 30 -a 1
A -t * -h 1 -m 1073741823 -s 0
n -t * -a 4 -s 4 -S UP -v circle -c black -i black
n -t * -a 0 -s 0 -S UP -v circle -c black -i black
n -t * -a 5 -s 5 -S UP -v circle -c black -i black
n -t * -a 1 -s 1 -S UP -v circle -c black -i black
n -t * -a 2 -s 2 -S UP -v circle -c black -i black
n -t * -a 3 -s 3 -S UP -v circle -c black -i black
l -t * -s 0 -d 4 -S UP -r 1000000 -D 0.01 -c black
l -t * -s 4 -d 1 -S UP -r 1000000 -D 0.01 -c black
l -t * -s 5 -d 2 -S UP -r 1000000 -D 0.01 -c black
l -t * -s 5 -d 3 -S UP -r 1000000 -D 0.01 -c black
l -t * -s 4 -d 5 -S UP -r 200000 -D 0.01 -c black
+ -t 0.1 -s 0 -d 4 -p tcp -e 40 -c 0 -i 0 -a 0 -x {0.0 3.0 0 ------- null}
- -t 0.1 -s 0 -d 4 -p tcp -e 40 -c 0 -i 0 -a 0 -x {0.0 3.0 0 ------- null}
h -t 0.1 -s 0 -d 4 -p tcp -e 40 -c 0 -i 0 -a 0 -x {0.0 3.0 -1 ------- null}
r -t 0.11032 -s 0 -d 4 -p tcp -e 40 -c 0 -i 0 -a 0 -x {0.0 3.0 0 ------- null}
+ -t 0.11032 -s 4 -d 5 -p tcp -e 40 -c 0 -i 0 -a 0 -x {0.0 3.0 0 ------- null}
- -t 0.11032 -s 4 -d 5 -p tcp -e 40 -c 0 -i 0 -a 0 -x {0.0 3.0 0 ------- null}
h -t 0.11032 -s 4 -d 5 -p tcp -e 40 -c 0 -i 0 -a 0 -x {0.0 3.0 -1 ------- null}
r -t 0.12192 -s 4 -d 5 -p tcp -e 40 -c 0 -i 0 -a 0 -x {0.0 3.0 0 ------- null}
+ -t 0.12192 -s 5 -d 3 -p tcp -e 40 -c 0 -i 0 -a 0 -x {0.0 3.0 0 ------- null}
- -t 0.12192 -s 5 -d 3 -p tcp -e 40 -c 0 -i 0 -a 0 -x {0.0 3.0 0 ------- null}
h -t 0.12192 -s 5 -d 3 -p tcp -e 40 -c 0 -i 0 -a 0 -x {0.0 3.0 -1 ------- null}
r -t 0.13224 -s 5 -d 3 -p tcp -e 40 -c 0 -i 0 -a 0 -x {0.0 3.0 0 ------- null}
+ -t 0.13224 -s 3 -d 5 -p ack -e 40 -c 0 -i 1 -a 0 -x {3.0 0.0 0 ------- null}
- -t 0.13224 -s 3 -d 5 -p ack -e 40 -c 0 -i 1 -a 0 -x {3.0 0.0 0 ------- null}
h -t 0.13224 -s 3 -d 5 -p ack -e 40 -c 0 -i 1 -a 0 -x {3.0 0.0 -1 ------- null}
r -t 0.14256 -s 3 -d 5 -p ack -e 40 -c 0 -i 1 -a 0 -x {3.0 0.0 0 ------- null}
+ -t 0.14256 -s 5 -d 4 -p ack -e 40 -c 0 -i 1 -a 0 -x {3.0 0.0 0 ------- null}
- -t 0.14256 -s 5 -d 4 -p ack -e 40 -c 0 -i 1 -a 0 -x {3.0 0.0 0 ------- null}
h -t 0.14256 -s 5 -d 4 -p ack -e 40 -c 0 -i 1 -a 0 -x {3.0 0.0 -1 ------- null}
r -t 0.15416 -s 5 -d 4 -p ack -e 40 -c 0 -i 1 -a 0 -x {3.0 0.0 0 ------- null}
+ -t 0.15416 -s 4 -d 0 -p ack -e 40 -c 0 -i 1 -a 0 -x {3.0 0.0 0 ------- null}
- -t 0.15416 -s 4 -d 0 -p ack -e 40 -c 0 -i 1 -a 0 -x {3.0 0.0 0 ------- null}
h -t 0.15416 -s 4 -d 0 -p ack -e 40 -c 0 -i 1 -a 0 -x {3.0 0.0 -1 ------- null}
r -t 0.16448 -s 4 -d 0 -p ack -e 40 -c 0 -i 1 -a 0 -x {3.0 0.0 0 ------- null}
+ -t 0.16448 -s 0 -d 4 -p tcp -e 1040 -c 0 -i 2 -a 0 -x {0.0 3.0 1 ------- null}
- -t 0.16448 -s 0 -d 4 -p tcp -e 1040 -c 0 -i 2 -a 0 -x {0.0 3.0 1 ------- null}
h -t 0.16448 -s 0 -d 4 -p tcp -e 1040 -c 0 -i 2 -a 0 -x {0.0 3.0 -1 ------- null}
+ -t 0.16448 -s 0 -d 4 -p tcp -e 1040 -c 0 -i 3 -a 0 -x {0.0 3.0 2 ------- null}
- -t 0.1728 -s 0 -d 4 -p tcp -e 1040 -c 0 -i 3 -a 0 -x {0.0 3.0 2 ------- null}
h -t 0.1728 -s 0 -d 4 -p tcp -e 1040 -c 0 -i 3 -a 0 -x {0.0 3.0 -1 ------- null}
r -t 0.1828 -s 0 -d 4 -p tcp -e 1040 -c 0 -i 2 -a 0 -x {0.0 3.0 1 ------- null}
+ -t 0.1828 -s 4 -d 5 -p tcp -e 1040 -c 0 -i 2 -a 0 -x {0.0 3.0 1 ------- null}
- -t 0.1828 -s 4 -d 5 -p tcp -e 1040 -c 0 -i 2 -a 0 -x {0.0 3.0 1 ------- null}
h -t 0.1828 -s 4 -d 5 -p tcp -e 1040 -c 0 -i 2 -a 0 -x {0.0 3.0 -1 ------- null}
r -t 0.19112 -s 0 -d 4 -p tcp -e 1040 -c 0 -i 3 -a 0 -x {0.0 3.0 2 ------- null}
+ -t 0.19112 -s 4 -d 5 -p tcp -e 1040 -c 0 -i 3 -a 0 -x {0.0 3.0 2 ------- null}
- -t 0.2244 -s 4 -d 5 -p tcp -e 1040 -c 0 -i 3 -a 0 -x {0.0 3.0 2 ------- null}
h -t 0.2244 -s 4 -d 5 -p tcp -e 1040 -c 0 -i 3 -a 0 -x {0.0 3.0 -1 ------- null}
r -t 0.2344 -s 4 -d 5 -p tcp -e 1040 -c 0 -i 2 -a 0 -x {0.0 3.0 1 ------- null}
+ -t 0.2344 -s 5 -d 3 -p tcp -e 1040 -c 0 -i 2 -a 0 -x {0.0 3.0 1 ------- null}
- -t 0.2344 -s 5 -d 3 -p tcp -e 1040 -c 0 -i 2 -a 0 -x {0.0 3.0 1 ------- null}
h -t 0.2344 -s 5 -d 3 -p tcp -e 1040 -c 0 -i 2 -a 0 -x {0.0 3.0 -1 ------- null}
r -t 0.25272 -s 5 -d 3 -p tcp -e 1040 -c 0 -i 2 -a 0 -x {0.0 3.0 1 ------- null}
+ -t 0.25272 -s 3 -d 5 -p ack -e 40 -c 0 -i 4 -a 0 -x {3.0 0.0 1 ------- null}
- -t 0.25272 -s 3 -d 5 -p ack -e 40 -c 0 -i 4 -a 0 -x {3.0 0.0 1 ------- null}
h -t 0.25272 -s 3 -d 5 -p ack -e 40 -c 0 -i 4 -a 0 -x {3.0 0.0 -1 ------- null}
r -t 0.26304 -s 3 -d 5 -p ack -e 40 -c 0 -i 4 -a 0 -x {3.0 0.0 1 ------- null}
+ -t 0.26304 -s 5 -d 4 -p ack -e 40 -c 0 -i 4 -a 0 -x {3.0 0.0 1 ------- null}
- -t 0.26304 -s 5 -d 4 -p ack -e 40 -c 0 -i 4 -a 0 -x {3.0 0.0 1 ------- null}
h -t 0.26304 -s 5 -d 4 -p ack -e 40 -c 0 -i 4 -a 0 -x {3.0 0.0 -1 ------- null}
r -t 0.27464 -s 5 -d 4 -p ack -e 40 -c 0 -i 4 -a 0 -x {3.0 0.0 1 ------- null}
+ -t 0.27464 -s 4 -d 0 -p ack -e 40 -c 0 -i 4 -a 0 -x {3.0 0.0 1 ------- null}
- -t 0.27464 -s 4 -d 0 -p ack -e 40 -c 0 -i 4 -a 0 -x {3.0 0.0 1 ------- null}
h -t 0.27464 -s 4 -d 0 -p ack -e 40 -c 0 -i 4 -a 0 -x {3.0 0.0 -1 ------- null}
r -t 0.276 -s 4 -d 5 -p tcp -e 1040 -c 0 -i 3 -a 0 -x {0.0 3.0 2 ------- null}
+ -t 0.276 -s 5 -d 3 -p tcp -e 1040 -c 0 -i 3 -a 0 -x {0.0 3.0 2 ------- null}
- -t 0.276 -s 5 -d 3 -p tcp -e 1040 -c 0 -i 3 -a 0 -x {0.0 3.0 2 ------- null}
h -t 0.276 -s 5 -d 3 -p tcp -e 1040 -c 0 -i 3 -a 0 -x {0.0 3.0 -1 ------- null}
r -t 0.28496 -s 4 -d 0 -p ack -e 40 -c 0 -i 4 -a 0 -x {3.0 0.0 1 ------- null}
+ -t 0.28496 -s 0 -d 4 -p tcp -e 1040 -c 0 -i 5 -a 0 -x {0.0 3.0 3 ------- null}
- -t 0.28496 -s 0 -d 4 -p tcp -e 1040 -c 0 -i 5 -a 0 -x {0.0 3.0 3 ------- null}
h -t 0.28496 -s 0 -d 4 -p tcp -e 1040 -c 0 -i 5 -a 0 -x {0.0 3.0 -1 ------- null}
+ -t 0.28496 -s 0 -d 4 -p tcp -e 1040 -c 0 -i 6 -a 0 -x {0.0 3.0 4 ------- null}
- -t 0.29328 -s 0 -d 4 -p tcp -e 1040 -c 0 -i 6 -a 0 -x {0.0 3.0 4 ------- null}
h -t 0.29328 -s 0 -d 4 -p tcp -e 1040 -c 0 -i 6 -a 0 -x {0.0 3.0 -1 ------- null}
r -t 0.29432 -s 5 -d 3 -p tcp -e 1040 -c 0 -i 3 -a 0 -x {0.0 3.0 2 ------- null}
+ -t 0.29432 -s 3 -d 5 -p ack -e 40 -c 0 -i 7 -a 0 -x {3.0 0.0 2 ------- null}
- -t 0.29432 -s 3 -d 5 -p ack -e 40 -c 0 -i 7 -a 0 -x {3.0 0.0 2 ------- null}
h -t 0.29432 -s 3 -d 5 -p ack -e 40 -c 0 -i 7 -a 0 -x {3.0 0.0 -1 ------- null}
r -t 0.30328 -s 0 -d 4 -p tcp -e 1040 -c 0 -i 5 -a 0 -x {0.0 3.0 3 ------- null}
+ -t 0.30328 -s 4 -d 5 -p tcp -e 1040 -c 0 -i 5 -a 0 -x {0.0 3.0 3 ------- null}
- -t 0.30328 -s 4 -d 5 -p tcp -e 1040 -c 0 -i 5 -a 0 -x {0.0 3.0 3 ------- null}
h -t 0.30328 -s 4 -d 5 -p tcp -e 1040 -c 0 -i 5 -a 0 -x {0.0 3.0 -1 ------- null}
r -t 0.30464 -s 3 -d 5 -p ack -e 40 -c 0 -i 7 -a 0 -x {3.0 0.0 2 ------- null}
+ -t 0.30464 -s 5 -d 4 -p ack -e 40 -c 0 -i 7 -a 0 -x {3.0 0.0 2 ------- null}
- -t 0.30464 -s 5 -d 4 -p ack -e 40 -c 0 -i 7 -a 0 -x {3.0 0.0 2 ------- null}
h -t 0.30464 -s 5 -d 4 -p ack -e 40 -c 0 -i 7 -a 0 -x {3.0 0.0 -1 ------- null}
r -t 0.3116 -s 0 -d 4 -p tcp -e 1040 -c 0 -i 6 -a 0 -x {0.0 3.0 4 ------- null}
+ -t 0.3116 -s 4 -d 5 -p tcp -e 1040 -c 0 -i 6 -a 0 -x {0.0 3.0 4 ------- null}
r -t 0.31624 -s 5 -d 4 -p ack -e 40 -c 0 -i 7 -a 0 -x {3.0 0.0 2 ------- null}
+ -t 0.31624 -s 4 -d 0 -p ack -e 40 -c 0 -i 7 -a 0 -x {3.0 0.0 2 ------- null}
- -t 0.31624 -s 4 -d 0 -p ack -e 40 -c 0 -i 7 -a 0 -x {3.0 0.0 2 ------- null}
h -t 0.31624 -s 4 -d 0 -p ack -e 40 -c 0 -i 7 -a 0 -x {3.0 0.0 -1 ------- null}
r -t 0.32656 -s 4 -d 0 -p ack -e 40 -c 0 -i 7 -a 0 -x {3.0 0.0 2 ------- null}
+ -t 0.32656 -s 0 -d 4 -p tcp -e 1040 -c 0 -i 8 -a 0 -x {0.0 3.0 5 ------- null}
- -t 0.32656 -s 0 -d 4 -p tcp -e 1040 -c 0 -i 8 -a 0 -x {0.0 3.0 5 ------- null}
h -t 0.32656 -s 0 -d 4 -p tcp -e 1040 -c 0 -i 8 -a 0 -x {0.0 3.0 -1 ------- null}
+ -t 0.32656 -s 0 -d 4 -p tcp -e 1040 -c 0 -i 9 -a 0 -x {0.0 3.0 6 ------- null}
- -t 0.33488 -s 0 -d 4 -p tcp -e 1040 -c 0 -i 9 -a 0 -x {0.0 3.0 6 ------- null}
h -t 0.33488 -s 0 -d 4 -p tcp -e 1040 -c 0 -i 9 -a 0 -x {0.0 3.0 -1 ------- null}
- -t 0.34488 -s 4 -d 5 -p tcp -e 1040 -c 0 -i 6 -a 0 -x {0.0 3.0 4 ------- null}
h -t 0.34488 -s 4 -d 5 -p tcp -e 1040 -c 0 -i 6 -a 0 -x {0.0 3.0 -1 ------- null}
r -t 0.34488 -s 0 -d 4 -p tcp -e 1040 -c 0 -i 8 -a 0 -x {0.0 3.0 5 ------- null}
+ -t 0.34488 -s 4 -d 5 -p tcp -e 1040 -c 0 -i 8 -a 0 -x {0.0 3.0 5 ------- null}
r -t 0.3532 -s 0 -d 4 -p tcp -e 1040 -c 0 -i 9 -a 0 -x {0.0 3.0 6 ------- null}
+ -t 0.3532 -s 4 -d 5 -p tcp -e 1040 -c 0 -i 9 -a 0 -x {0.0 3.0 6 ------- null}
r -t 0.35488 -s 4 -d 5 -p tcp -e 1040 -c 0 -i 5 -a 0 -x {0.0 3.0 3 ------- null}
+ -t 0.35488 -s 5 -d 3 -p tcp -e 1040 -c 0 -i 5 -a 0 -x {0.0 3.0 3 ------- null}
- -t 0.35488 -s 5 -d 3 -p tcp -e 1040 -c 0 -i 5 -a 0 -x {0.0 3.0 3 ------- null}
h -t 0.35488 -s 5 -d 3 -p tcp -e 1040 -c 0 -i 5 -a 0 -x {0.0 3.0 -1 ------- null}
r -t 0.3732 -s 5 -d 3 -p tcp -e 1040 -c 0 -i 5 -a 0 -x {0.0 3.0 3 ------- null}
+ -t 0.3732 -s 3 -d 5 -p ack -e 40 -c 0 -i 10 -a 0 -x {3.0 0.0 3 ------- null}
- -t 0.3732 -s 3 -d 5 -p ack -e 40 -c 0 -i 10 -a 0 -x {3.0 0.0 3 ------- null}
h -t 0.3732 -s 3 -d 5 -p ack -e 40 -c 0 -i 10 -a 0 -x {3.0 0.0 -1 ------- null}
r -t 0.38352 -s 3 -d 5 -p ack -e 40 -c 0 -i 10 -a 0 -x {3.0 0.0 3 ------- null}
+ -t 0.38352 -s 5 -d 4 -p ack -e 40 -c 0 -i 10 -a 0 -x {3.0 0.0 3 ------- null}
- -t 0.38352 -s 5 -d 4 -p ack -e 40 -c 0 -i 10 -a 0 -x {3.0 0.0 3 ------- null}
h -t 0.38352 -s 5 -d 4 -p ack -e 40 -c 0 -i 10 -a 0 -x {3.0 0.0 -1 ------- null}
- -t 0.38648 -s 4 -d 5 -p tcp -e 1040 -c 0 -i 8 -a 0 -x {0.0 3.0 5 ------- null}
h -t 0.38648 -s 4 -d 5 -p tcp -e 1040 -c 0 -i 8 -a 0 -x {0.0 3.0 -1 ------- null}
r -t 0.39512 -s 5 -d 4 -p ack -e 40 -c 0 -i 10 -a 0 -x {3.0 0.0 3 ------- null}
+ -t 0.39512 -s 4 -d 0 -p ack -e 40 -c 0 -i 10 -a 0 -x {3.0 0.0 3 ------- null}
- -t 0.39512 -s 4 -d 0 -p ack -e 40 -c 0 -i 10 -a 0 -x {3.0 0.0 3 ------- null}
h -t 0.39512 -s 4 -d 0 -p ack -e 40 -c 0 -i 10 -a 0 -x {3.0 0.0 -1 ------- null}
r -t 0.39648 -s 4 -d 5 -p tcp -e 1040 -c 0 -i 6 -a 0 -x {0.0 3.0 4 ------- null}
+ -t 0.39648 -s 5 -d 3 -p tcp -e 1040 -c 0 -i 6 -a 0 -x {0.0 3.0 4 ------- null}
- -t 0.39648 -s 5 -d 3 -p tcp -e 1040 -c 0 -i 6 -a 0 -x {0.0 3.0 4 ------- null}
h -t 0.39648 -s 5 -d 3 -p tcp -e 1040 -c 0 -i 6 -a 0 -x {0.0 3.0 -1 ------- null}
r -t 0.40544 -s 4 -d 0 -p ack -e 40 -c 0 -i 10 -a 0 -x {3.0 0.0 3 ------- null}
+ -t 0.40544 -s 0 -d 4 -p tcp -e 1040 -c 0 -i 11 -a 0 -x {0.0 3.0 7 ------- null}
- -t 0.40544 -s 0 -d 4 -p tcp -e 1040 -c 0 -i 11 -a 0 -x {0.0 3.0 7 ------- null}
h -t 0.40544 -s 0 -d 4 -p tcp -e 1040 -c 0 -i 11 -a 0 -x {0.0 3.0 -1 ------- null}
+ -t 0.40544 -s 0 -d 4 -p tcp -e 1040 -c 0 -i 12 -a 0 -x {0.0 3.0 8 ------- null}
- -t 0.41376 -s 0 -d 4 -p tcp -e 1040 -c 0 -i 12 -a 0 -x {0.0 3.0 8 ------- null}
h -t 0.41376 -s 0 -d 4 -p tcp -e 1040 -c 0 -i 12 -a 0 -x {0.0 3.0 -1 ------- null}
r -t 0.4148 -s 5 -d 3 -p tcp -e 1040 -c 0 -i 6 -a 0 -x {0.0 3.0 4 ------- null}
+ -t 0.4148 -s 3 -d 5 -p ack -e 40 -c 0 -i 13 -a 0 -x {3.0 0.0 4 ------- null}
- -t 0.4148 -s 3 -d 5 -p ack -e 40 -c 0 -i 13 -a 0 -x {3.0 0.0 4 ------- null}
h -t 0.4148 -s 3 -d 5 -p ack -e 40 -c 0 -i 13 -a 0 -x {3.0 0.0 -1 ------- null}
r -t 0.42376 -s 0 -d 4 -p tcp -e 1040 -c 0 -i 11 -a 0 -x {0.0 3.0 7 ------- null}
+ -t 0.42376 -s 4 -d 5 -p tcp -e 1040 -c 0 -i 11 -a 0 -x {0.0 3.0 7 ------- null}
r -t 0.42512 -s 3 -d 5 -p ack -e 40 -c 0 -i 13 -a 0 -x {3.0 0.0 4 ------- null}
+ -t 0.42512 -s 5 -d 4 -p ack -e 40 -c 0 -i 13 -a 0 -x {3.0 0.0 4 ------- null}
- -t 0.42512 -s 5 -d 4 -p ack -e 40 -c 0 -i 13 -a 0 -x {3.0 0.0 4 ------- null}
h -t 0.42512 -s 5 -d 4 -p ack -e 40 -c 0 -i 13 -a 0 -x {3.0 0.0 -1 ------- null}
- -t 0.42808 -s 4 -d 5 -p tcp -e 1040 -c 0 -i 9 -a 0 -x {0.0 3.0 6 ------- null}
h -t 0.42808 -s 4 -d 5 -p tcp -e 1040 -c 0 -i 9 -a 0 -x {0.0 3.0 -1 ------- null}
r -t 0.43208 -s 0 -d 4 -p tcp -e 1040 -c 0 -i 12 -a 0 -x {0.0 3.0 8 ------- null}
+ -t 0.43208 -s 4 -d 5 -p tcp -e 1040 -c 0 -i 12 -a 0 -x {0.0 3.0 8 ------- null}
r -t 0.43672 -s 5 -d 4 -p ack -e 40 -c 0 -i 13 -a 0 -x {3.0 0.0 4 ------- null}
+ -t 0.43672 -s 4 -d 0 -p ack -e 40 -c 0 -i 13 -a 0 -x {3.0 0.0 4 ------- null}
- -t 0.43672 -s 4 -d 0 -p ack -e 40 -c 0 -i 13 -a 0 -x {3.0 0.0 4 ------- null}
h -t 0.43672 -s 4 -d 0 -p ack -e 40 -c 0 -i 13 -a 0 -x {3.0 0.0 -1 ------- null}
r -t 0.43808 -s 4 -d 5 -p tcp -e 1040 -c 0 -i 8 -a 0 -x {0.0 3.0 5 ------- null}
+ -t 0.43808 -s 5 -d 3 -p tcp -e 1040 -c 0 -i 8 -a 0 -x {0.0 3.0 5 ------- null}
- -t 0.43808 -s 5 -d 3 -p tcp -e 1040 -c 0 -i 8 -a 0 -x {0.0 3.0 5 ------- null}
h -t 0.43808 -s 5 -d 3 -p tcp -e 1040 -c 0 -i 8 -a 0 -x {0.0 3.0 -1 ------- null}
r -t 0.44704 -s 4 -d 0 -p ack -e 40 -c 0 -i 13 -a 0 -x {3.0 0.0 4 ------- null}
+ -t 0.44704 -s 0 -d 4 -p tcp -e 1040 -c 0 -i 14 -a 0 -x {0.0 3.0 9 ------- null}
- -t 0.44704 -s 0 -d 4 -p tcp -e 1040 -c 0 -i 14 -a 0 -x {0.0 3.0 9 ------- null}
h -t 0.44704 -s 0 -d 4 -p tcp -e 1040 -c 0 -i 14 -a 0 -x {0.0 3.0 -1 ------- null}
+ -t 0.44704 -s 0 -d 4 -p tcp -e 1040 -c 0 -i 15 -a 0 -x {0.0 3.0 10 ------- null}
- -t 0.45536 -s 0 -d 4 -p tcp -e 1040 -c 0 -i 15 -a 0 -x {0.0 3.0 10 ------- null}
h -t 0.45536 -s 0 -d 4 -p tcp -e 1040 -c 0 -i 15 -a 0 -x {0.0 3.0 -1 ------- null}
r -t 0.4564 -s 5 -d 3 -p tcp -e 1040 -c 0 -i 8 -a 0 -x {0.0 3.0 5 ------- null}
+ -t 0.4564 -s 3 -d 5 -p ack -e 40 -c 0 -i 16 -a 0 -x {3.0 0.0 5 ------- null}
- -t 0.4564 -s 3 -d 5 -p ack -e 40 -c 0 -i 16 -a 0 -x {3.0 0.0 5 ------- null}
h -t 0.4564 -s 3 -d 5 -p ack -e 40 -c 0 -i 16 -a 0 -x {3.0 0.0 -1 ------- null}
r -t 0.46536 -s 0 -d 4 -p tcp -e 1040 -c 0 -i 14 -a 0 -x {0.0 3.0 9 ------- null}
+ -t 0.46536 -s 4 -d 5 -p tcp -e 1040 -c 0 -i 14 -a 0 -x {0.0 3.0 9 ------- null}
r -t 0.46672 -s 3 -d 5 -p ack -e 40 -c 0 -i 16 -a 0 -x {3.0 0.0 5 ------- null}
+ -t 0.46672 -s 5 -d 4 -p ack -e 40 -c 0 -i 16 -a 0 -x {3.0 0.0 5 ------- null}
- -t 0.46672 -s 5 -d 4 -p ack -e 40 -c 0 -i 16 -a 0 -x {3.0 0.0 5 ------- null}
h -t 0.46672 -s 5 -d 4 -p ack -e 40 -c 0 -i 16 -a 0 -x {3.0 0.0 -1 ------- null}
- -t 0.46968 -s 4 -d 5 -p tcp -e 1040 -c 0 -i 11 -a 0 -x {0.0 3.0 7 ------- null}
h -t 0.46968 -s 4 -d 5 -p tcp -e 1040 -c 0 -i 11 -a 0 -x {0.0 3.0 -1 ------- null}
r -t 0.47368 -s 0 -d 4 -p tcp -e 1040 -c 0 -i 15 -a 0 -x {0.0 3.0 10 ------- null}
+ -t 0.47368 -s 4 -d 5 -p tcp -e 1040 -c 0 -i 15 -a 0 -x {0.0 3.0 10 ------- null}
r -t 0.47832 -s 5 -d 4 -p ack -e 40 -c 0 -i 16 -a 0 -x {3.0 0.0 5 ------- null}
+ -t 0.47832 -s 4 -d 0 -p ack -e 40 -c 0 -i 16 -a 0 -x {3.0 0.0 5 ------- null}
- -t 0.47832 -s 4 -d 0 -p ack -e 40 -c 0 -i 16 -a 0 -x {3.0 0.0 5 ------- null}
h -t 0.47832 -s 4 -d 0 -p ack -e 40 -c 0 -i 16 -a 0 -x {3.0 0.0 -1 ------- null}
r -t 0.47968 -s 4 -d 5 -p tcp -e 1040 -c 0 -i 9 -a 0 -x {0.0 3.0 6 ------- null}
+ -t 0.47968 -s 5 -d 3 -p tcp -e 1040 -c 0 -i 9 -a 0 -x {0.0 3.0 6 ------- null}
- -t 0.47968 -s 5 -d 3 -p tcp -e 1040 -c 0 -i 9 -a 0 -x {0.0 3.0 6 ------- null}
h -t 0.47968 -s 5 -d 3 -p tcp -e 1040 -c 0 -i 9 -a 0 -x {0.0 3.0 -1 ------- null}
r -t 0.48864 -s 4 -d 0 -p ack -e 40 -c 0 -i 16 -a 0 -x {3.0 0.0 5 ------- null}
+ -t 0.48864 -s 0 -d 4 -p tcp -e 1040 -c 0 -i 17 -a 0 -x {0.0 3.0 11 ------- null}
- -t 0.48864 -s 0 -d 4 -p tcp -e 1040 -c 0 -i 17 -a 0 -x {0.0 3.0 11 ------- null}
h -t 0.48864 -s 0 -d 4 -p tcp -e 1040 -c 0 -i 17 -a 0 -x {0.0 3.0 -1 ------- null}
+ -t 0.48864 -s 0 -d 4 -p tcp -e 1040 -c 0 -i 18 -a 0 -x {0.0 3.0 12 ------- null}
- -t 0.49696 -s 0 -d 4 -p tcp -e 1040 -c 0 -i 18 -a 0 -x {0.0 3.0 12 ------- null}
h -t 0.49696 -s 0 -d 4 -p tcp -e 1040 -c 0 -i 18 -a 0 -x {0.0 3.0 -1 ------- null}
r -t 0.498 -s 5 -d 3 -p tcp -e 1040 -c 0 -i 9 -a 0 -x {0.0 3.0 6 ------- null}
+ -t 0.498 -s 3 -d 5 -p ack -e 40 -c 0 -i 19 -a 0 -x {3.0 0.0 6 ------- null}
- -t 0.498 -s 3 -d 5 -p ack -e 40 -c 0 -i 19 -a 0 -x {3.0 0.0 6 ------- null}
h -t 0.498 -s 3 -d 5 -p ack -e 40 -c 0 -i 19 -a 0 -x {3.0 0.0 -1 ------- null}
r -t 0.50696 -s 0 -d 4 -p tcp -e 1040 -c 0 -i 17 -a 0 -x {0.0 3.0 11 ------- null}
+ -t 0.50696 -s 4 -d 5 -p tcp -e 1040 -c 0 -i 17 -a 0 -x {0.0 3.0 11 ------- null}
r -t 0.50832 -s 3 -d 5 -p ack -e 40 -c 0 -i 19 -a 0 -x {3.0 0.0 6 ------- null}
+ -t 0.50832 -s 5 -d 4 -p ack -e 40 -c 0 -i 19 -a 0 -x {3.0 0.0 6 ------- null}
- -t 0.50832 -s 5 -d 4 -p ack -e 40 -c 0 -i 19 -a 0 -x {3.0 0.0 6 ------- null}
h -t 0.50832 -s 5 -d 4 -p ack -e 40 -c 0 -i 19 -a 0 -x {3.0 0.0 -1 ------- null}
- -t 0.51128 -s 4 -d 5 -p tcp -e 1040 -c 0 -i 12 -a 0 -x {0.0 3.0 8 ------- null}
h -t 0.51128 -s 4 -d 5 -p tcp -e 1040 -c 0 -i 12 -a 0 -x {0.0 3.0 -1 ------- null}
r -t 0.51528 -s 0 -d 4 -p tcp -e 1040 -c 0 -i 18 -a 0 -x {0.0 3.0 12 ------- null}
+ -t 0.51528 -s 4 -d 5 -p tcp -e 1040 -c 0 -i 18 -a 0 -x {0.0 3.0 12 ------- null}
r -t 0.51992 -s 5 -d 4 -p ack -e 40 -c 0 -i 19 -a 0 -x {3.0 0.0 6 ------- null}
+ -t 0.51992 -s 4 -d 0 -p ack -e 40 -c 0 -i 19 -a 0 -x {3.0 0.0 6 ------- null}
- -t 0.51992 -s 4 -d 0 -p ack -e 40 -c 0 -i 19 -a 0 -x {3.0 0.0 6 ------- null}
h -t 0.51992 -s 4 -d 0 -p ack -e 40 -c 0 -i 19 -a 0 -x {3.0 0.0 -1 ------- null}
r -t 0.52128 -s 4 -d 5 -p tcp -e 1040 -c 0 -i 11 -a 0 -x {0.0 3.0 7 ------- null}
+ -t 0.52128 -s 5 -d 3 -p tcp -e 1040 -c 0 -i 11 -a 0 -x {0.0 3.0 7 ------- null}
- -t 0.52128 -s 5 -d 3 -p tcp -e 1040 -c 0 -i 11 -a 0 -x {0.0 3.0 7 ------- null}
h -t 0.52128 -s 5 -d 3 -p tcp -e 1040 -c 0 -i 11 -a 0 -x {0.0 3.0 -1 ------- null}
r -t 0.53024 -s 4 -d 0 -p ack -e 40 -c 0 -i 19 -a 0 -x {3.0 0.0 6 ------- null}
+ -t 0.53024 -s 0 -d 4 -p tcp -e 1040 -c 0 -i 20 -a 0 -x {0.0 3.0 13 ------- null}
- -t 0.53024 -s 0 -d 4 -p tcp -e 1040 -c 0 -i 20 -a 0 -x {0.0 3.0 13 ------- null}
h -t 0.53024 -s 0 -d 4 -p tcp -e 1040 -c 0 -i 20 -a 0 -x {0.0 3.0 -1 ------- null}
+ -t 0.53024 -s 0 -d 4 -p tcp -e 1040 -c 0 -i 21 -a 0 -x {0.0 3.0 14 ------- null}
- -t 0.53856 -s 0 -d 4 -p tcp -e 1040 -c 0 -i 21 -a 0 -x {0.0 3.0 14 ------- null}
h -t 0.53856 -s 0 -d 4 -p tcp -e 1040 -c 0 -i 21 -a 0 -x {0.0 3.0 -1 ------- null}
r -t 0.5396 -s 5 -d 3 -p tcp -e 1040 -c 0 -i 11 -a 0 -x {0.0 3.0 7 ------- null}
+ -t 0.5396 -s 3 -d 5 -p ack -e 40 -c 0 -i 22 -a 0 -x {3.0 0.0 7 ------- null}
- -t 0.5396 -s 3 -d 5 -p ack -e 40 -c 0 -i 22 -a 0 -x {3.0 0.0 7 ------- null}
h -t 0.5396 -s 3 -d 5 -p ack -e 40 -c 0 -i 22 -a 0 -x {3.0 0.0 -1 ------- null}
r -t 0.54856 -s 0 -d 4 -p tcp -e 1040 -c 0 -i 20 -a 0 -x {0.0 3.0 13 ------- null}
+ -t 0.54856 -s 4 -d 5 -p tcp -e 1040 -c 0 -i 20 -a 0 -x {0.0 3.0 13 ------- null}
r -t 0.54992 -s 3 -d 5 -p ack -e 40 -c 0 -i 22 -a 0 -x {3.0 0.0 7 ------- null}
+ -t 0.54992 -s 5 -d 4 -p ack -e 40 -c 0 -i 22 -a 0 -x {3.0 0.0 7 ------- null}
- -t 0.54992 -s 5 -d 4 -p ack -e 40 -c 0 -i 22 -a 0 -x {3.0 0.0 7 ------- null}
h -t 0.54992 -s 5 -d 4 -p ack -e 40 -c 0 -i 22 -a 0 -x {3.0 0.0 -1 ------- null}
- -t 0.55288 -s 4 -d 5 -p tcp -e 1040 -c 0 -i 14 -a 0 -x {0.0 3.0 9 ------- null}
h -t 0.55288 -s 4 -d 5 -p tcp -e 1040 -c 0 -i 14 -a 0 -x {0.0 3.0 -1 ------- null}
r -t 0.55688 -s 0 -d 4 -p tcp -e 1040 -c 0 -i 21 -a 0 -x {0.0 3.0 14 ------- null}
+ -t 0.55688 -s 4 -d 5 -p tcp -e 1040 -c 0 -i 21 -a 0 -x {0.0 3.0 14 ------- null}
r -t 0.56152 -s 5 -d 4 -p ack -e 40 -c 0 -i 22 -a 0 -x {3.0 0.0 7 ------- null}
+ -t 0.56152 -s 4 -d 0 -p ack -e 40 -c 0 -i 22 -a 0 -x {3.0 0.0 7 ------- null}
- -t 0.56152 -s 4 -d 0 -p ack -e 40 -c 0 -i 22 -a 0 -x {3.0 0.0 7 ------- null}
h -t 0.56152 -s 4 -d 0 -p ack -e 40 -c 0 -i 22 -a 0 -x {3.0 0.0 -1 ------- null}
r -t 0.56288 -s 4 -d 5 -p tcp -e 1040 -c 0 -i 12 -a 0 -x {0.0 3.0 8 ------- null}
+ -t 0.56288 -s 5 -d 3 -p tcp -e 1040 -c 0 -i 12 -a 0 -x {0.0 3.0 8 ------- null}
- -t 0.56288 -s 5 -d 3 -p tcp -e 1040 -c 0 -i 12 -a 0 -x {0.0 3.0 8 ------- null}
h -t 0.56288 -s 5 -d 3 -p tcp -e 1040 -c 0 -i 12 -a 0 -x {0.0 3.0 -1 ------- null}
r -t 0.57184 -s 4 -d 0 -p ack -e 40 -c 0 -i 22 -a 0 -x {3.0 0.0 7 ------- null}
+ -t 0.57184 -s 0 -d 4 -p tcp -e 1040 -c 0 -i 23 -a 0 -x {0.0 3.0 15 ------- null}
- -t 0.57184 -s 0 -d 4 -p tcp -e 1040 -c 0 -i 23 -a 0 -x {0.0 3.0 15 ------- null}
h -t 0.57184 -s 0 -d 4 -p tcp -e 1040 -c 0 -i 23 -a 0 -x {0.0 3.0 -1 ------- null}
+ -t 0.57184 -s 0 -d 4 -p tcp -e 1040 -c 0 -i 24 -a 0 -x {0.0 3.0 16 ------- null}
- -t 0.58016 -s 0 -d 4 -p tcp -e 1040 -c 0 -i 24 -a 0 -x {0.0 3.0 16 ------- null}
h -t 0.58016 -s 0 -d 4 -p tcp -e 1040 -c 0 -i 24 -a 0 -x {0.0 3.0 -1 ------- null}
r -t 0.5812 -s 5 -d 3 -p tcp -e 1040 -c 0 -i 12 -a 0 -x {0.0 3.0 8 ------- null}
+ -t 0.5812 -s 3 -d 5 -p ack -e 40 -c 0 -i 25 -a 0 -x {3.0 0.0 8 ------- null}
- -t 0.5812 -s 3 -d 5 -p ack -e 40 -c 0 -i 25 -a 0 -x {3.0 0.0 8 ------- null}
h -t 0.5812 -s 3 -d 5 -p ack -e 40 -c 0 -i 25 -a 0 -x {3.0 0.0 -1 ------- null}
r -t 0.59016 -s 0 -d 4 -p tcp -e 1040 -c 0 -i 23 -a 0 -x {0.0 3.0 15 ------- null}
+ -t 0.59016 -s 4 -d 5 -p tcp -e 1040 -c 0 -i 23 -a 0 -x {0.0 3.0 15 ------- null}
r -t 0.59152 -s 3 -d 5 -p ack -e 40 -c 0 -i 25 -a 0 -x {3.0 0.0 8 ------- null}
+ -t 0.59152 -s 5 -d 4 -p ack -e 40 -c 0 -i 25 -a 0 -x {3.0 0.0 8 ------- null}
- -t 0.59152 -s 5 -d 4 -p ack -e 40 -c 0 -i 25 -a 0 -x {3.0 0.0 8 ------- null}
h -t 0.59152 -s 5 -d 4 -p ack -e 40 -c 0 -i 25 -a 0 -x {3.0 0.0 -1 ------- null}
- -t 0.59448 -s 4 -d 5 -p tcp -e 1040 -c 0 -i 15 -a 0 -x {0.0 3.0 10 ------- null}
h -t 0.59448 -s 4 -d 5 -p tcp -e 1040 -c 0 -i 15 -a 0 -x {0.0 3.0 -1 ------- null}
r -t 0.59848 -s 0 -d 4 -p tcp -e 1040 -c 0 -i 24 -a 0 -x {0.0 3.0 16 ------- null}
+ -t 0.59848 -s 4 -d 5 -p tcp -e 1040 -c 0 -i 24 -a 0 -x {0.0 3.0 16 ------- null}
r -t 0.60312 -s 5 -d 4 -p ack -e 40 -c 0 -i 25 -a 0 -x {3.0 0.0 8 ------- null}
+ -t 0.60312 -s 4 -d 0 -p ack -e 40 -c 0 -i 25 -a 0 -x {3.0 0.0 8 ------- null}
- -t 0.60312 -s 4 -d 0 -p ack -e 40 -c 0 -i 25 -a 0 -x {3.0 0.0 8 ------- null}
h -t 0.60312 -s 4 -d 0 -p ack -e 40 -c 0 -i 25 -a 0 -x {3.0 0.0 -1 ------- null}
r -t 0.60448 -s 4 -d 5 -p tcp -e 1040 -c 0 -i 14 -a 0 -x {0.0 3.0 9 ------- null}
+ -t 0.60448 -s 5 -d 3 -p tcp -e 1040 -c 0 -i 14 -a 0 -x {0.0 3.0 9 ------- null}
- -t 0.60448 -s 5 -d 3 -p tcp -e 1040 -c 0 -i 14 -a 0 -x {0.0 3.0 9 ------- null}
h -t 0.60448 -s 5 -d 3 -p tcp -e 1040 -c 0 -i 14 -a 0 -x {0.0 3.0 -1 ------- null}
r -t 0.61344 -s 4 -d 0 -p ack -e 40 -c 0 -i 25 -a 0 -x {3.0 0.0 8 ------- null}
+ -t 0.61344 -s 0 -d 4 -p tcp -e 1040 -c 0 -i 26 -a 0 -x {0.0 3.0 17 ------- null}
- -t 0.61344 -s 0 -d 4 -p tcp -e 1040 -c 0 -i 26 -a 0 -x {0.0 3.0 17 ------- null}
h -t 0.61344 -s 0 -d 4 -p tcp -e 1040 -c 0 -i 26 -a 0 -x {0.0 3.0 -1 ------- null}
+ -t 0.61344 -s 0 -d 4 -p tcp -e 1040 -c 0 -i 27 -a 0 -x {0.0 3.0 18 ------- null}
- -t 0.62176 -s 0 -d 4 -p tcp -e 1040 -c 0 -i 27 -a 0 -x {0.0 3.0 18 ------- null}
h -t 0.62176 -s 0 -d 4 -p tcp -e 1040 -c 0 -i 27 -a 0 -x {0.0 3.0 -1 ------- null}
r -t 0.6228 -s 5 -d 3 -p tcp -e 1040 -c 0 -i 14 -a 0 -x {0.0 3.0 9 ------- null}
+ -t 0.6228 -s 3 -d 5 -p ack -e 40 -c 0 -i 28 -a 0 -x {3.0 0.0 9 ------- null}
- -t 0.6228 -s 3 -d 5 -p ack -e 40 -c 0 -i 28 -a 0 -x {3.0 0.0 9 ------- null}
h -t 0.6228 -s 3 -d 5 -p ack -e 40 -c 0 -i 28 -a 0 -x {3.0 0.0 -1 ------- null}
r -t 0.63176 -s 0 -d 4 -p tcp -e 1040 -c 0 -i 26 -a 0 -x {0.0 3.0 17 ------- null}
+ -t 0.63176 -s 4 -d 5 -p tcp -e 1040 -c 0 -i 26 -a 0 -x {0.0 3.0 17 ------- null}
r -t 0.63312 -s 3 -d 5 -p ack -e 40 -c 0 -i 28 -a 0 -x {3.0 0.0 9 ------- null}
+ -t 0.63312 -s 5 -d 4 -p ack -e 40 -c 0 -i 28 -a 0 -x {3.0 0.0 9 ------- null}
- -t 0.63312 -s 5 -d 4 -p ack -e 40 -c 0 -i 28 -a 0 -x {3.0 0.0 9 ------- null}
h -t 0.63312 -s 5 -d 4 -p ack -e 40 -c 0 -i 28 -a 0 -x {3.0 0.0 -1 ------- null}
- -t 0.63608 -s 4 -d 5 -p tcp -e 1040 -c 0 -i 17 -a 0 -x {0.0 3.0 11 ------- null}
h -t 0.63608 -s 4 -d 5 -p tcp -e 1040 -c 0 -i 17 -a 0 -x {0.0 3.0 -1 ------- null}
r -t 0.64008 -s 0 -d 4 -p tcp -e 1040 -c 0 -i 27 -a 0 -x {0.0 3.0 18 ------- null}
+ -t 0.64008 -s 4 -d 5 -p tcp -e 1040 -c 0 -i 27 -a 0 -x {0.0 3.0 18 ------- null}
r -t 0.64472 -s 5 -d 4 -p ack -e 40 -c 0 -i 28 -a 0 -x {3.0 0.0 9 ------- null}
+ -t 0.64472 -s 4 -d 0 -p ack -e 40 -c 0 -i 28 -a 0 -x {3.0 0.0 9 ------- null}
- -t 0.64472 -s 4 -d 0 -p ack -e 40 -c 0 -i 28 -a 0 -x {3.0 0.0 9 ------- null}
h -t 0.64472 -s 4 -d 0 -p ack -e 40 -c 0 -i 28 -a 0 -x {3.0 0.0 -1 ------- null}
r -t 0.64608 -s 4 -d 5 -p tcp -e 1040 -c 0 -i 15 -a 0 -x {0.0 3.0 10 ------- null}
+ -t 0.64608 -s 5 -d 3 -p tcp -e 1040 -c 0 -i 15 -a 0 -x {0.0 3.0 10 ------- null}
- -t 0.64608 -s 5 -d 3 -p tcp -e 1040 -c 0 -i 15 -a 0 -x {0.0 3.0 10 ------- null}
h -t 0.64608 -s 5 -d 3 -p tcp -e 1040 -c 0 -i 15 -a 0 -x {0.0 3.0 -1 ------- null}
r -t 0.65504 -s 4 -d 0 -p ack -e 40 -c 0 -i 28 -a 0 -x {3.0 0.0 9 ------- null}
+ -t 0.65504 -s 0 -d 4 -p tcp -e 1040 -c 0 -i 29 -a 0 -x {0.0 3.0 19 ------- null}
- -t 0.65504 -s 0 -d 4 -p tcp -e 1040 -c 0 -i 29 -a 0 -x {0.0 3.0 19 ------- null}
h -t 0.65504 -s 0 -d 4 -p tcp -e 1040 -c 0 -i 29 -a 0 -x {0.0 3.0 -1 ------- null}
+ -t 0.65504 -s 0 -d 4 -p tcp -e 1040 -c 0 -i 30 -a 0 -x {0.0 3.0 20 ------- null}
- -t 0.66336 -s 0 -d 4 -p tcp -e 1040 -c 0 -i 30 -a 0 -x {0.0 3.0 20 ------- null}
h -t 0.66336 -s 0 -d 4 -p tcp -e 1040 -c 0 -i 30 -a 0 -x {0.0 3.0 -1 ------- null}
r -t 0.6644 -s 5 -d 3 -p tcp -e 1040 -c 0 -i 15 -a 0 -x {0.0 3.0 10 ------- null}
+ -t 0.6644 -s 3 -d 5 -p ack -e 40 -c 0 -i 31 -a 0 -x {3.0 0.0 10 ------- null}
- -t 0.6644 -s 3 -d 5 -p ack -e 40 -c 0 -i 31 -a 0 -x {3.0 0.0 10 ------- null}
h -t 0.6644 -s 3 -d 5 -p ack -e 40 -c 0 -i 31 -a 0 -x {3.0 0.0 -1 ------- null}
r -t 0.67336 -s 0 -d 4 -p tcp -e 1040 -c 0 -i 29 -a 0 -x {0.0 3.0 19 ------- null}
+ -t 0.67336 -s 4 -d 5 -p tcp -e 1040 -c 0 -i 29 -a 0 -x {0.0 3.0 19 ------- null}
r -t 0.67472 -s 3 -d 5 -p ack -e 40 -c 0 -i 31 -a 0 -x {3.0 0.0 10 ------- null}
+ -t 0.67472 -s 5 -d 4 -p ack -e 40 -c 0 -i 31 -a 0 -x {3.0 0.0 10 ------- null}
- -t 0.67472 -s 5 -d 4 -p ack -e 40 -c 0 -i 31 -a 0 -x {3.0 0.0 10 ------- null}
h -t 0.67472 -s 5 -d 4 -p ack -e 40 -c 0 -i 31 -a 0 -x {3.0 0.0 -1 ------- null}
- -t 0.67768 -s 4 -d 5 -p tcp -e 1040 -c 0 -i 18 -a 0 -x {0.0 3.0 12 ------- null}
h -t 0.67768 -s 4 -d 5 -p tcp -e 1040 -c 0 -i 18 -a 0 -x {0.0 3.0 -1 ------- null}
r -t 0.68168 -s 0 -d 4 -p tcp -e 1040 -c 0 -i 30 -a 0 -x {0.0 3.0 20 ------- null}
+ -t 0.68168 -s 4 -d 5 -p tcp -e 1040 -c 0 -i 30 -a 0 -x {0.0 3.0 20 ------- null}
r -t 0.68632 -s 5 -d 4 -p ack -e 40 -c 0 -i 31 -a 0 -x {3.0 0.0 10 ------- null}
+ -t 0.68632 -s 4 -d 0 -p ack -e 40 -c 0 -i 31 -a 0 -x {3.0 0.0 10 ------- null}
- -t 0.68632 -s 4 -d 0 -p ack -e 40 -c 0 -i 31 -a 0 -x {3.0 0.0 10 ------- null}
h -t 0.68632 -s 4 -d 0 -p ack -e 40 -c 0 -i 31 -a 0 -x {3.0 0.0 -1 ------- null}
r -t 0.68768 -s 4 -d 5 -p tcp -e 1040 -c 0 -i 17 -a 0 -x {0.0 3.0 11 ------- null}
+ -t 0.68768 -s 5 -d 3 -p tcp -e 1040 -c 0 -i 17 -a 0 -x {0.0 3.0 11 ------- null}
- -t 0.68768 -s 5 -d 3 -p tcp -e 1040 -c 0 -i 17 -a 0 -x {0.0 3.0 11 ------- null}
h -t 0.68768 -s 5 -d 3 -p tcp -e 1040 -c 0 -i 17 -a 0 -x {0.0 3.0 -1 ------- null}
r -t 0.69664 -s 4 -d 0 -p ack -e 40 -c 0 -i 31 -a 0 -x {3.0 0.0 10 ------- null}
+ -t 0.69664 -s 0 -d 4 -p tcp -e 1040 -c 0 -i 32 -a 0 -x {0.0 3.0 21 ------- null}
- -t 0.69664 -s 0 -d 4 -p tcp -e 1040 -c 0 -i 32 -a 0 -x {0.0 3.0 21 ------- null}
h -t 0.69664 -s 0 -d 4 -p tcp -e 1040 -c 0 -i 32 -a 0 -x {0.0 3.0 -1 ------- null}
+ -t 0.69664 -s 0 -d 4 -p tcp -e 1040 -c 0 -i 33 -a 0 -x {0.0 3.0 22 ------- null}
- -t 0.70496 -s 0 -d 4 -p tcp -e 1040 -c 0 -i 33 -a 0 -x {0.0 3.0 22 ------- null}
h -t 0.70496 -s 0 -d 4 -p tcp -e 1040 -c 0 -i 33 -a 0 -x {0.0 3.0 -1 ------- null}
r -t 0.706 -s 5 -d 3 -p tcp -e 1040 -c 0 -i 17 -a 0 -x {0.0 3.0 11 ------- null}
+ -t 0.706 -s 3 -d 5 -p ack -e 40 -c 0 -i 34 -a 0 -x {3.0 0.0 11 ------- null}
- -t 0.706 -s 3 -d 5 -p ack -e 40 -c 0 -i 34 -a 0 -x {3.0 0.0 11 ------- null}
h -t 0.706 -s 3 -d 5 -p ack -e 40 -c 0 -i 34 -a 0 -x {3.0 0.0 -1 ------- null}
r -t 0.71496 -s 0 -d 4 -p tcp -e 1040 -c 0 -i 32 -a 0 -x {0.0 3.0 21 ------- null}
+ -t 0.71496 -s 4 -d 5 -p tcp -e 1040 -c 0 -i 32 -a 0 -x {0.0 3.0 21 ------- null}
r -t 0.71632 -s 3 -d 5 -p ack -e 40 -c 0 -i 34 -a 0 -x {3.0 0.0 11 ------- null}
+ -t 0.71632 -s 5 -d 4 -p ack -e 40 -c 0 -i 34 -a 0 -x {3.0 0.0 11 ------- null}
- -t 0.71632 -s 5 -d 4 -p ack -e 40 -c 0 -i 34 -a 0 -x {3.0 0.0 11 ------- null}
h -t 0.71632 -s 5 -d 4 -p ack -e 40 -c 0 -i 34 -a 0 -x {3.0 0.0 -1 ------- null}
- -t 0.71928 -s 4 -d 5 -p tcp -e 1040 -c 0 -i 20 -a 0 -x {0.0 3.0 13 ------- null}
h -t 0.71928 -s 4 -d 5 -p tcp -e 1040 -c 0 -i 20 -a 0 -x {0.0 3.0 -1 ------- null}
r -t 0.72328 -s 0 -d 4 -p tcp -e 1040 -c 0 -i 33 -a 0 -x {0.0 3.0 22 ------- null}
+ -t 0.72328 -s 4 -d 5 -p tcp -e 1040 -c 0 -i 33 -a 0 -x {0.0 3.0 22 ------- null}
r -t 0.72792 -s 5 -d 4 -p ack -e 40 -c 0 -i 34 -a 0 -x {3.0 0.0 11 ------- null}
+ -t 0.72792 -s 4 -d 0 -p ack -e 40 -c 0 -i 34 -a 0 -x {3.0 0.0 11 ------- null}
- -t 0.72792 -s 4 -d 0 -p ack -e 40 -c 0 -i 34 -a 0 -x {3.0 0.0 11 ------- null}
h -t 0.72792 -s 4 -d 0 -p ack -e 40 -c 0 -i 34 -a 0 -x {3.0 0.0 -1 ------- null}
r -t 0.72928 -s 4 -d 5 -p tcp -e 1040 -c 0 -i 18 -a 0 -x {0.0 3.0 12 ------- null}
+ -t 0.72928 -s 5 -d 3 -p tcp -e 1040 -c 0 -i 18 -a 0 -x {0.0 3.0 12 ------- null}
- -t 0.72928 -s 5 -d 3 -p tcp -e 1040 -c 0 -i 18 -a 0 -x {0.0 3.0 12 ------- null}
h -t 0.72928 -s 5 -d 3 -p tcp -e 1040 -c 0 -i 18 -a 0 -x {0.0 3.0 -1 ------- null}
r -t 0.73824 -s 4 -d 0 -p ack -e 40 -c 0 -i 34 -a 0 -x {3.0 0.0 11 ------- null}
+ -t 0.73824 -s 0 -d 4 -p tcp -e 1040 -c 0 -i 35 -a 0 -x {0.0 3.0 23 ------- null}
- -t 0.73824 -s 0 -d 4 -p tcp -e 1040 -c 0 -i 35 -a 0 -x {0.0 3.0 23 ------- null}
h -t 0.73824 -s 0 -d 4 -p tcp -e 1040 -c 0 -i 35 -a 0 -x {0.0 3.0 -1 ------- null}
+ -t 0.73824 -s 0 -d 4 -p tcp -e 1040 -c 0 -i 36 -a 0 -x {0.0 3.0 24 ------- null}
- -t 0.74656 -s 0 -d 4 -p tcp -e 1040 -c 0 -i 36 -a 0 -x {0.0 3.0 24 ------- null}
h -t 0.74656 -s 0 -d 4 -p tcp -e 1040 -c 0 -i 36 -a 0 -x {0.0 3.0 -1 ------- null}
r -t 0.7476 -s 5 -d 3 -p tcp -e 1040 -c 0 -i 18 -a 0 -x {0.0 3.0 12 ------- null}
+ -t 0.7476 -s 3 -d 5 -p ack -e 40 -c 0 -i 37 -a 0 -x {3.0 0.0 12 ------- null}