+ 0.1 0 4 tcp 40 ------- 0 0.0 3.0 0 0
- 0.1 0 4 tcp 40 ------- 0 0.0 3.0 0 0
r 0.11032 0 4 tcp 40 ------- 0 0.0 3.0 0 0
+ 0.11032 4 5 tcp 40 ------- 0 0.0 3.0 0 0
- 0.11032 4 5 tcp 40 ------- 0 0.0 3.0 0 0
r 0.12192 4 5 tcp 40 ------- 0 0.0 3.0 0 0
+ 0.12192 5 3 tcp 40 ------- 0 0.0 3.0 0 0
- 0.12192 5 3 tcp 40 ------- 0 0.0 3.0 0 0
r 0.13224 5 3 tcp 40 ------- 0 0.0 3.0 0 0
+ 0.13224 3 5 ack 40 ------- 0 3.0 0.0 0 1
- 0.13224 3 5 ack 40 ------- 0 3.0 0.0 0 1
r 0.14256 3 5 ack 40 ------- 0 3.0 0.0 0 1
+ 0.14256 5 4 ack 40 ------- 0 3.0 0.0 0 1
- 0.14256 5 4 ack 40 ------- 0 3.0 0.0 0 1
r 0.15416 5 4 ack 40 ------- 0 3.0 0.0 0 1
+ 0.15416 4 0 ack 40 ------- 0 3.0 0.0 0 1
- 0.15416 4 0 ack 40 ------- 0 3.0 0.0 0 1
r 0.16448 4 0 ack 40 ------- 0 3.0 0.0 0 1
+ 0.16448 0 4 tcp 1040 ------- 0 0.0 3.0 1 2
- 0.16448 0 4 tcp 1040 ------- 0 0.0 3.0 1 2
+ 0.16448 0 4 tcp 1040 ------- 0 0.0 3.0 2 3
- 0.1728 0 4 tcp 1040 ------- 0 0.0 3.0 2 3
r 0.1828 0 4 tcp 1040 ------- 0 0.0 3.0 1 2
+ 0.1828 4 5 tcp 1040 ------- 0 0.0 3.0 1 2
- 0.1828 4 5 tcp 1040 ------- 0 0.0 3.0 1 2
r 0.19112 0 4 tcp 1040 ------- 0 0.0 3.0 2 3
+ 0.19112 4 5 tcp 1040 ------- 0 0.0 3.0 2 3
- 0.2244 4 5 tcp 1040 ------- 0 0.0 3.0 2 3
r 0.2344 4 5 tcp 1040 ------- 0 0.0 3.0 1 2
+ 0.2344 5 3 tcp 1040 ------- 0 0.0 3.0 1 2
- 0.2344 5 3 tcp 1040 ------- 0 0.0 3.0 1 2
r 0.25272 5 3 tcp 1040 ------- 0 0.0 3.0 1 2
+ 0.25272 3 5 ack 40 ------- 0 3.0 0.0 1 4
- 0.25272 3 5 ack 40 ------- 0 3.0 0.0 1 4
r 0.26304 3 5 ack 40 ------- 0 3.0 0.0 1 4
+ 0.26304 5 4 ack 40 ------- 0 3.0 0.0 1 4
- 0.26304 5 4 ack 40 ------- 0 3.0 0.0 1 4
r 0.27464 5 4 ack 40 ------- 0 3.0 0.0 1 4
+ 0.27464 4 0 ack 40 ------- 0 3.0 0.0 1 4
- 0.27464 4 0 ack 40 ------- 0 3.0 0.0 1 4
r 0.276 4 5 tcp 1040 ------- 0 0.0 3.0 2 3
+ 0.276 5 3 tcp 1040 ------- 0 0.0 3.0 2 3
- 0.276 5 3 tcp 1040 ------- 0 0.0 3.0 2 3
r 0.28496 4 0 ack 40 ------- 0 3.0 0.0 1 4
+ 0.28496 0 4 tcp 1040 ------- 0 0.0 3.0 3 5
- 0.28496 0 4 tcp 1040 ------- 0 0.0 3.0 3 5
+ 0.28496 0 4 tcp 1040 ------- 0 0.0 3.0 4 6
- 0.29328 0 4 tcp 1040 ------- 0 0.0 3.0 4 6
r 0.29432 5 3 tcp 1040 ------- 0 0.0 3.0 2 3
+ 0.29432 3 5 ack 40 ------- 0 3.0 0.0 2 7
- 0.29432 3 5 ack 40 ------- 0 3.0 0.0 2 7
r 0.30328 0 4 tcp 1040 ------- 0 0.0 3.0 3 5
+ 0.30328 4 5 tcp 1040 ------- 0 0.0 3.0 3 5
- 0.30328 4 5 tcp 1040 ------- 0 0.0 3.0 3 5
r 0.30464 3 5 ack 40 ------- 0 3.0 0.0 2 7
+ 0.30464 5 4 ack 40 ------- 0 3.0 0.0 2 7
- 0.30464 5 4 ack 40 ------- 0 3.0 0.0 2 7
r 0.3116 0 4 tcp 1040 ------- 0 0.0 3.0 4 6
+ 0.3116 4 5 tcp 1040 ------- 0 0.0 3.0 4 6
r 0.31624 5 4 ack 40 ------- 0 3.0 0.0 2 7
+ 0.31624 4 0 ack 40 ------- 0 3.0 0.0 2 7
- 0.31624 4 0 ack 40 ------- 0 3.0 0.0 2 7
r 0.32656 4 0 ack 40 ------- 0 3.0 0.0 2 7
+ 0.32656 0 4 tcp 1040 ------- 0 0.0 3.0 5 8
- 0.32656 0 4 tcp 1040 ------- 0 0.0 3.0 5 8
+ 0.32656 0 4 tcp 1040 ------- 0 0.0 3.0 6 9
- 0.33488 0 4 tcp 1040 ------- 0 0.0 3.0 6 9
- 0.34488 4 5 tcp 1040 ------- 0 0.0 3.0 4 6
r 0.34488 0 4 tcp 1040 ------- 0 0.0 3.0 5 8
+ 0.34488 4 5 tcp 1040 ------- 0 0.0 3.0 5 8
r 0.3532 0 4 tcp 1040 ------- 0 0.0 3.0 6 9
+ 0.3532 4 5 tcp 1040 ------- 0 0.0 3.0 6 9
r 0.35488 4 5 tcp 1040 ------- 0 0.0 3.0 3 5
+ 0.35488 5 3 tcp 1040 ------- 0 0.0 3.0 3 5
- 0.35488 5 3 tcp 1040 ------- 0 0.0 3.0 3 5
r 0.3732 5 3 tcp 1040 ------- 0 0.0 3.0 3 5
+ 0.3732 3 5 ack 40 ------- 0 3.0 0.0 3 10
- 0.3732 3 5 ack 40 ------- 0 3.0 0.0 3 10
r 0.38352 3 5 ack 40 ------- 0 3.0 0.0 3 10
+ 0.38352 5 4 ack 40 ------- 0 3.0 0.0 3 10
- 0.38352 5 4 ack 40 ------- 0 3.0 0.0 3 10
- 0.38648 4 5 tcp 1040 ------- 0 0.0 3.0 5 8
r 0.39512 5 4 ack 40 ------- 0 3.0 0.0 3 10
+ 0.39512 4 0 ack 40 ------- 0 3.0 0.0 3 10
- 0.39512 4 0 ack 40 ------- 0 3.0 0.0 3 10
r 0.39648 4 5 tcp 1040 ------- 0 0.0 3.0 4 6
+ 0.39648 5 3 tcp 1040 ------- 0 0.0 3.0 4 6
- 0.39648 5 3 tcp 1040 ------- 0 0.0 3.0 4 6
r 0.40544 4 0 ack 40 ------- 0 3.0 0.0 3 10
+ 0.40544 0 4 tcp 1040 ------- 0 0.0 3.0 7 11
- 0.40544 0 4 tcp 1040 ------- 0 0.0 3.0 7 11
+ 0.40544 0 4 tcp 1040 ------- 0 0.0 3.0 8 12
- 0.41376 0 4 tcp 1040 ------- 0 0.0 3.0 8 12
r 0.4148 5 3 tcp 1040 ------- 0 0.0 3.0 4 6
+ 0.4148 3 5 ack 40 ------- 0 3.0 0.0 4 13
- 0.4148 3 5 ack 40 ------- 0 3.0 0.0 4 13
r 0.42376 0 4 tcp 1040 ------- 0 0.0 3.0 7 11
+ 0.42376 4 5 tcp 1040 ------- 0 0.0 3.0 7 11
r 0.42512 3 5 ack 40 ------- 0 3.0 0.0 4 13
+ 0.42512 5 4 ack 40 ------- 0 3.0 0.0 4 13
- 0.42512 5 4 ack 40 ------- 0 3.0 0.0 4 13
- 0.42808 4 5 tcp 1040 ------- 0 0.0 3.0 6 9
r 0.43208 0 4 tcp 1040 ------- 0 0.0 3.0 8 12
+ 0.43208 4 5 tcp 1040 ------- 0 0.0 3.0 8 12
r 0.43672 5 4 ack 40 ------- 0 3.0 0.0 4 13
+ 0.43672 4 0 ack 40 ------- 0 3.0 0.0 4 13
- 0.43672 4 0 ack 40 ------- 0 3.0 0.0 4 13
r 0.43808 4 5 tcp 1040 ------- 0 0.0 3.0 5 8
+ 0.43808 5 3 tcp 1040 ------- 0 0.0 3.0 5 8
- 0.43808 5 3 tcp 1040 ------- 0 0.0 3.0 5 8
r 0.44704 4 0 ack 40 ------- 0 3.0 0.0 4 13
+ 0.44704 0 4 tcp 1040 ------- 0 0.0 3.0 9 14
- 0.44704 0 4 tcp 1040 ------- 0 0.0 3.0 9 14
+ 0.44704 0 4 tcp 1040 ------- 0 0.0 3.0 10 15
- 0.45536 0 4 tcp 1040 ------- 0 0.0 3.0 10 15
r 0.4564 5 3 tcp 1040 ------- 0 0.0 3.0 5 8
+ 0.4564 3 5 ack 40 ------- 0 3.0 0.0 5 16
- 0.4564 3 5 ack 40 ------- 0 3.0 0.0 5 16
r 0.46536 0 4 tcp 1040 ------- 0 0.0 3.0 9 14
+ 0.46536 4 5 tcp 1040 ------- 0 0.0 3.0 9 14
r 0.46672 3 5 ack 40 ------- 0 3.0 0.0 5 16
+ 0.46672 5 4 ack 40 ------- 0 3.0 0.0 5 16
- 0.46672 5 4 ack 40 ------- 0 3.0 0.0 5 16
- 0.46968 4 5 tcp 1040 ------- 0 0.0 3.0 7 11
r 0.47368 0 4 tcp 1040 ------- 0 0.0 3.0 10 15
+ 0.47368 4 5 tcp 1040 ------- 0 0.0 3.0 10 15
r 0.47832 5 4 ack 40 ------- 0 3.0 0.0 5 16
+ 0.47832 4 0 ack 40 ------- 0 3.0 0.0 5 16
- 0.47832 4 0 ack 40 ------- 0 3.0 0.0 5 16
r 0.47968 4 5 tcp 1040 ------- 0 0.0 3.0 6 9
+ 0.47968 5 3 tcp 1040 ------- 0 0.0 3.0 6 9
- 0.47968 5 3 tcp 1040 ------- 0 0.0 3.0 6 9
r 0.48864 4 0 ack 40 ------- 0 3.0 0.0 5 16
+ 0.48864 0 4 tcp 1040 ------- 0 0.0 3.0 11 17
- 0.48864 0 4 tcp 1040 ------- 0 0.0 3.0 11 17
+ 0.48864 0 4 tcp 1040 ------- 0 0.0 3.0 12 18
- 0.49696 0 4 tcp 1040 ------- 0 0.0 3.0 12 18
r 0.498 5 3 tcp 1040 ------- 0 0.0 3.0 6 9
+ 0.498 3 5 ack 40 ------- 0 3.0 0.0 6 19
- 0.498 3 5 ack 40 ------- 0 3.0 0.0 6 19
r 0.50696 0 4 tcp 1040 ------- 0 0.0 3.0 11 17
+ 0.50696 4 5 tcp 1040 ------- 0 0.0 3.0 11 17
r 0.50832 3 5 ack 40 ------- 0 3.0 0.0 6 19
+ 0.50832 5 4 ack 40 ------- 0 3.0 0.0 6 19
- 0.50832 5 4 ack 40 ------- 0 3.0 0.0 6 19
- 0.51128 4 5 tcp 1040 ------- 0 0.0 3.0 8 12
r 0.51528 0 4 tcp 1040 ------- 0 0.0 3.0 12 18
+ 0.51528 4 5 tcp 1040 ------- 0 0.0 3.0 12 18
r 0.51992 5 4 ack 40 ------- 0 3.0 0.0 6 19
+ 0.51992 4 0 ack 40 ------- 0 3.0 0.0 6 19
- 0.51992 4 0 ack 40 ------- 0 3.0 0.0 6 19
r 0.52128 4 5 tcp 1040 ------- 0 0.0 3.0 7 11
+ 0.52128 5 3 tcp 1040 ------- 0 0.0 3.0 7 11
- 0.52128 5 3 tcp 1040 ------- 0 0.0 3.0 7 11
r 0.53024 4 0 ack 40 ------- 0 3.0 0.0 6 19
+ 0.53024 0 4 tcp 1040 ------- 0 0.0 3.0 13 20
- 0.53024 0 4 tcp 1040 ------- 0 0.0 3.0 13 20
+ 0.53024 0 4 tcp 1040 ------- 0 0.0 3.0 14 21
- 0.53856 0 4 tcp 1040 ------- 0 0.0 3.0 14 21
r 0.5396 5 3 tcp 1040 ------- 0 0.0 3.0 7 11
+ 0.5396 3 5 ack 40 ------- 0 3.0 0.0 7 22
- 0.5396 3 5 ack 40 ------- 0 3.0 0.0 7 22
r 0.54856 0 4 tcp 1040 ------- 0 0.0 3.0 13 20
+ 0.54856 4 5 tcp 1040 ------- 0 0.0 3.0 13 20
r 0.54992 3 5 ack 40 ------- 0 3.0 0.0 7 22
+ 0.54992 5 4 ack 40 ------- 0 3.0 0.0 7 22
- 0.54992 5 4 ack 40 ------- 0 3.0 0.0 7 22
- 0.55288 4 5 tcp 1040 ------- 0 0.0 3.0 9 14
r 0.55688 0 4 tcp 1040 ------- 0 0.0 3.0 14 21
+ 0.55688 4 5 tcp 1040 ------- 0 0.0 3.0 14 21
r 0.56152 5 4 ack 40 ------- 0 3.0 0.0 7 22
+ 0.56152 4 0 ack 40 ------- 0 3.0 0.0 7 22
- 0.56152 4 0 ack 40 ------- 0 3.0 0.0 7 22
r 0.56288 4 5 tcp 1040 ------- 0 0.0 3.0 8 12
+ 0.56288 5 3 tcp 1040 ------- 0 0.0 3.0 8 12
- 0.56288 5 3 tcp 1040 ------- 0 0.0 3.0 8 12
r 0.57184 4 0 ack 40 ------- 0 3.0 0.0 7 22
+ 0.57184 0 4 tcp 1040 ------- 0 0.0 3.0 15 23
- 0.57184 0 4 tcp 1040 ------- 0 0.0 3.0 15 23
+ 0.57184 0 4 tcp 1040 ------- 0 0.0 3.0 16 24
- 0.58016 0 4 tcp 1040 ------- 0 0.0 3.0 16 24
r 0.5812 5 3 tcp 1040 ------- 0 0.0 3.0 8 12
+ 0.5812 3 5 ack 40 ------- 0 3.0 0.0 8 25
- 0.5812 3 5 ack 40 ------- 0 3.0 0.0 8 25
r 0.59016 0 4 tcp 1040 ------- 0 0.0 3.0 15 23
+ 0.59016 4 5 tcp 1040 ------- 0 0.0 3.0 15 23
r 0.59152 3 5 ack 40 ------- 0 3.0 0.0 8 25
+ 0.59152 5 4 ack 40 ------- 0 3.0 0.0 8 25
- 0.59152 5 4 ack 40 ------- 0 3.0 0.0 8 25
- 0.59448 4 5 tcp 1040 ------- 0 0.0 3.0 10 15
r 0.59848 0 4 tcp 1040 ------- 0 0.0 3.0 16 24
+ 0.59848 4 5 tcp 1040 ------- 0 0.0 3.0 16 24
r 0.60312 5 4 ack 40 ------- 0 3.0 0.0 8 25
+ 0.60312 4 0 ack 40 ------- 0 3.0 0.0 8 25
- 0.60312 4 0 ack 40 ------- 0 3.0 0.0 8 25
r 0.60448 4 5 tcp 1040 ------- 0 0.0 3.0 9 14
+ 0.60448 5 3 tcp 1040 ------- 0 0.0 3.0 9 14
- 0.60448 5 3 tcp 1040 ------- 0 0.0 3.0 9 14
r 0.61344 4 0 ack 40 ------- 0 3.0 0.0 8 25
+ 0.61344 0 4 tcp 1040 ------- 0 0.0 3.0 17 26
- 0.61344 0 4 tcp 1040 ------- 0 0.0 3.0 17 26
+ 0.61344 0 4 tcp 1040 ------- 0 0.0 3.0 18 27
- 0.62176 0 4 tcp 1040 ------- 0 0.0 3.0 18 27
r 0.6228 5 3 tcp 1040 ------- 0 0.0 3.0 9 14
+ 0.6228 3 5 ack 40 ------- 0 3.0 0.0 9 28
- 0.6228 3 5 ack 40 ------- 0 3.0 0.0 9 28
r 0.63176 0 4 tcp 1040 ------- 0 0.0 3.0 17 26
+ 0.63176 4 5 tcp 1040 ------- 0 0.0 3.0 17 26
r 0.63312 3 5 ack 40 ------- 0 3.0 0.0 9 28
+ 0.63312 5 4 ack 40 ------- 0 3.0 0.0 9 28
- 0.63312 5 4 ack 40 ------- 0 3.0 0.0 9 28
- 0.63608 4 5 tcp 1040 ------- 0 0.0 3.0 11 17
r 0.64008 0 4 tcp 1040 ------- 0 0.0 3.0 18 27
+ 0.64008 4 5 tcp 1040 ------- 0 0.0 3.0 18 27
r 0.64472 5 4 ack 40 ------- 0 3.0 0.0 9 28
+ 0.64472 4 0 ack 40 ------- 0 3.0 0.0 9 28
- 0.64472 4 0 ack 40 ------- 0 3.0 0.0 9 28
r 0.64608 4 5 tcp 1040 ------- 0 0.0 3.0 10 15
+ 0.64608 5 3 tcp 1040 ------- 0 0.0 3.0 10 15
- 0.64608 5 3 tcp 1040 ------- 0 0.0 3.0 10 15
r 0.65504 4 0 ack 40 ------- 0 3.0 0.0 9 28
+ 0.65504 0 4 tcp 1040 ------- 0 0.0 3.0 19 29
- 0.65504 0 4 tcp 1040 ------- 0 0.0 3.0 19 29
+ 0.65504 0 4 tcp 1040 ------- 0 0.0 3.0 20 30
- 0.66336 0 4 tcp 1040 ------- 0 0.0 3.0 20 30
r 0.6644 5 3 tcp 1040 ------- 0 0.0 3.0 10 15
+ 0.6644 3 5 ack 40 ------- 0 3.0 0.0 10 31
- 0.6644 3 5 ack 40 ------- 0 3.0 0.0 10 31
r 0.67336 0 4 tcp 1040 ------- 0 0.0 3.0 19 29
+ 0.67336 4 5 tcp 1040 ------- 0 0.0 3.0 19 29
r 0.67472 3 5 ack 40 ------- 0 3.0 0.0 10 31
+ 0.67472 5 4 ack 40 ------- 0 3.0 0.0 10 31
- 0.67472 5 4 ack 40 ------- 0 3.0 0.0 10 31
- 0.67768 4 5 tcp 1040 ------- 0 0.0 3.0 12 18
r 0.68168 0 4 tcp 1040 ------- 0 0.0 3.0 20 30
+ 0.68168 4 5 tcp 1040 ------- 0 0.0 3.0 20 30
r 0.68632 5 4 ack 40 ------- 0 3.0 0.0 10 31
+ 0.68632 4 0 ack 40 ------- 0 3.0 0.0 10 31
- 0.68632 4 0 ack 40 ------- 0 3.0 0.0 10 31
r 0.68768 4 5 tcp 1040 ------- 0 0.0 3.0 11 17
+ 0.68768 5 3 tcp 1040 ------- 0 0.0 3.0 11 17
- 0.68768 5 3 tcp 1040 ------- 0 0.0 3.0 11 17
r 0.69664 4 0 ack 40 ------- 0 3.0 0.0 10 31
+ 0.69664 0 4 tcp 1040 ------- 0 0.0 3.0 21 32
- 0.69664 0 4 tcp 1040 ------- 0 0.0 3.0 21 32
+ 0.69664 0 4 tcp 1040 ------- 0 0.0 3.0 22 33
- 0.70496 0 4 tcp 1040 ------- 0 0.0 3.0 22 33
r 0.706 5 3 tcp 1040 ------- 0 0.0 3.0 11 17
+ 0.706 3 5 ack 40 ------- 0 3.0 0.0 11 34
- 0.706 3 5 ack 40 ------- 0 3.0 0.0 11 34
r 0.71496 0 4 tcp 1040 ------- 0 0.0 3.0 21 32
+ 0.71496 4 5 tcp 1040 ------- 0 0.0 3.0 21 32
r 0.71632 3 5 ack 40 ------- 0 3.0 0.0 11 34
+ 0.71632 5 4 ack 40 ------- 0 3.0 0.0 11 34
- 0.71632 5 4 ack 40 ------- 0 3.0 0.0 11 34
- 0.71928 4 5 tcp 1040 ------- 0 0.0 3.0 13 20
r 0.72328 0 4 tcp 1040 ------- 0 0.0 3.0 22 33
+ 0.72328 4 5 tcp 1040 ------- 0 0.0 3.0 22 33
r 0.72792 5 4 ack 40 ------- 0 3.0 0.0 11 34
+ 0.72792 4 0 ack 40 ------- 0 3.0 0.0 11 34
- 0.72792 4 0 ack 40 ------- 0 3.0 0.0 11 34
r 0.72928 4 5 tcp 1040 ------- 0 0.0 3.0 12 18
+ 0.72928 5 3 tcp 1040 ------- 0 0.0 3.0 12 18
- 0.72928 5 3 tcp 1040 ------- 0 0.0 3.0 12 18
r 0.73824 4 0 ack 40 ------- 0 3.0 0.0 11 34
+ 0.73824 0 4 tcp 1040 ------- 0 0.0 3.0 23 35
- 0.73824 0 4 tcp 1040 ------- 0 0.0 3.0 23 35
+ 0.73824 0 4 tcp 1040 ------- 0 0.0 3.0 24 36
- 0.74656 0 4 tcp 1040 ------- 0 0.0 3.0 24 36
r 0.7476 5 3 tcp 1040 ------- 0 0.0 3.0 12 18
+ 0.7476 3 5 ack 40 ------- 0 3.0 0.0 12 37
- 0.7476 3 5 ack 40 ------- 0 3.0 0.0 12 37
r 0.75656 0 4 tcp 1040 ------- 0 0.0 3.0 23 35
+ 0.75656 4 5 tcp 1040 ------- 0 0.0 3.0 23 35
r 0.75792 3 5 ack 40 ------- 0 3.0 0.0 12 37
+ 0.75792 5 4 ack 40 ------- 0 3.0 0.0 12 37
- 0.75792 5 4 ack 40 ------- 0 3.0 0.0 12 37
- 0.76088 4 5 tcp 1040 ------- 0 0.0 3.0 14 21
r 0.76488 0 4 tcp 1040 ------- 0 0.0 3.0 24 36
+ 0.76488 4 5 tcp 1040 ------- 0 0.0 3.0 24 36
r 0.76952 5 4 ack 40 ------- 0 3.0 0.0 12 37
+ 0.76952 4 0 ack 40 ------- 0 3.0 0.0 12 37
- 0.76952 4 0 ack 40 ------- 0 3.0 0.0 12 37
r 0.77088 4 5 tcp 1040 ------- 0 0.0 3.0 13 20
+ 0.77088 5 3 tcp 1040 ------- 0 0.0 3.0 13 20
- 0.77088 5 3 tcp 1040 ------- 0 0.0 3.0 13 20
r 0.77984 4 0 ack 40 ------- 0 3.0 0.0 12 37
+ 0.77984 0 4 tcp 1040 ------- 0 0.0 3.0 25 38
- 0.77984 0 4 tcp 1040 ------- 0 0.0 3.0 25 38
+ 0.77984 0 4 tcp 1040 ------- 0 0.0 3.0 26 39
- 0.78816 0 4 tcp 1040 ------- 0 0.0 3.0 26 39
r 0.7892 5 3 tcp 1040 ------- 0 0.0 3.0 13 20
+ 0.7892 3 5 ack 40 ------- 0 3.0 0.0 13 40
- 0.7892 3 5 ack 40 ------- 0 3.0 0.0 13 40
r 0.79816 0 4 tcp 1040 ------- 0 0.0 3.0 25 38
+ 0.79816 4 5 tcp 1040 ------- 0 0.0 3.0 25 38
r 0.79952 3 5 ack 40 ------- 0 3.0 0.0 13 40
+ 0.79952 5 4 ack 40 ------- 0 3.0 0.0 13 40
- 0.79952 5 4 ack 40 ------- 0 3.0 0.0 13 40
- 0.80248 4 5 tcp 1040 ------- 0 0.0 3.0 15 23
r 0.80648 0 4 tcp 1040 ------- 0 0.0 3.0 26 39
+ 0.80648 4 5 tcp 1040 ------- 0 0.0 3.0 26 39
r 0.81112 5 4 ack 40 ------- 0 3.0 0.0 13 40
+ 0.81112 4 0 ack 40 ------- 0 3.0 0.0 13 40
- 0.81112 4 0 ack 40 ------- 0 3.0 0.0 13 40
r 0.81248 4 5 tcp 1040 ------- 0 0.0 3.0 14 21
+ 0.81248 5 3 tcp 1040 ------- 0 0.0 3.0 14 21
- 0.81248 5 3 tcp 1040 ------- 0 0.0 3.0 14 21
r 0.82144 4 0 ack 40 ------- 0 3.0 0.0 13 40
+ 0.82144 0 4 tcp 1040 ------- 0 0.0 3.0 27 41
- 0.82144 0 4 tcp 1040 ------- 0 0.0 3.0 27 41
+ 0.82144 0 4 tcp 1040 ------- 0 0.0 3.0 28 42
- 0.82976 0 4 tcp 1040 ------- 0 0.0 3.0 28 42
r 0.8308 5 3 tcp 1040 ------- 0 0.0 3.0 14 21
+ 0.8308 3 5 ack 40 ------- 0 3.0 0.0 14 43
- 0.8308 3 5 ack 40 ------- 0 3.0 0.0 14 43
r 0.83976 0 4 tcp 1040 ------- 0 0.0 3.0 27 41
+ 0.83976 4 5 tcp 1040 ------- 0 0.0 3.0 27 41
r 0.84112 3 5 ack 40 ------- 0 3.0 0.0 14 43
+ 0.84112 5 4 ack 40 ------- 0 3.0 0.0 14 43
- 0.84112 5 4 ack 40 ------- 0 3.0 0.0 14 43
- 0.84408 4 5 tcp 1040 ------- 0 0.0 3.0 16 24
r 0.84808 0 4 tcp 1040 ------- 0 0.0 3.0 28 42
+ 0.84808 4 5 tcp 1040 ------- 0 0.0 3.0 28 42
r 0.85272 5 4 ack 40 ------- 0 3.0 0.0 14 43
+ 0.85272 4 0 ack 40 ------- 0 3.0 0.0 14 43
- 0.85272 4 0 ack 40 ------- 0 3.0 0.0 14 43
r 0.85408 4 5 tcp 1040 ------- 0 0.0 3.0 15 23
+ 0.85408 5 3 tcp 1040 ------- 0 0.0 3.0 15 23
- 0.85408 5 3 tcp 1040 ------- 0 0.0 3.0 15 23
r 0.86304 4 0 ack 40 ------- 0 3.0 0.0 14 43
+ 0.86304 0 4 tcp 1040 ------- 0 0.0 3.0 29 44
- 0.86304 0 4 tcp 1040 ------- 0 0.0 3.0 29 44
+ 0.86304 0 4 tcp 1040 ------- 0 0.0 3.0 30 45
- 0.87136 0 4 tcp 1040 ------- 0 0.0 3.0 30 45
r 0.8724 5 3 tcp 1040 ------- 0 0.0 3.0 15 23
+ 0.8724 3 5 ack 40 ------- 0 3.0 0.0 15 46
- 0.8724 3 5 ack 40 ------- 0 3.0 0.0 15 46
r 0.88136 0 4 tcp 1040 ------- 0 0.0 3.0 29 44
+ 0.88136 4 5 tcp 1040 ------- 0 0.0 3.0 29 44
r 0.88272 3 5 ack 40 ------- 0 3.0 0.0 15 46
+ 0.88272 5 4 ack 40 ------- 0 3.0 0.0 15 46
- 0.88272 5 4 ack 40 ------- 0 3.0 0.0 15 46
- 0.88568 4 5 tcp 1040 ------- 0 0.0 3.0 17 26
r 0.88968 0 4 tcp 1040 ------- 0 0.0 3.0 30 45
+ 0.88968 4 5 tcp 1040 ------- 0 0.0 3.0 30 45
r 0.89432 5 4 ack 40 ------- 0 3.0 0.0 15 46
+ 0.89432 4 0 ack 40 ------- 0 3.0 0.0 15 46
- 0.89432 4 0 ack 40 ------- 0 3.0 0.0 15 46
r 0.89568 4 5 tcp 1040 ------- 0 0.0 3.0 16 24
+ 0.89568 5 3 tcp 1040 ------- 0 0.0 3.0 16 24
- 0.89568 5 3 tcp 1040 ------- 0 0.0 3.0 16 24
r 0.90464 4 0 ack 40 ------- 0 3.0 0.0 15 46
+ 0.90464 0 4 tcp 1040 ------- 0 0.0 3.0 31 47
- 0.90464 0 4 tcp 1040 ------- 0 0.0 3.0 31 47
+ 0.90464 0 4 tcp 1040 ------- 0 0.0 3.0 32 48
- 0.91296 0 4 tcp 1040 ------- 0 0.0 3.0 32 48
r 0.914 5 3 tcp 1040 ------- 0 0.0 3.0 16 24
+ 0.914 3 5 ack 40 ------- 0 3.0 0.0 16 49
- 0.914 3 5 ack 40 ------- 0 3.0 0.0 16 49
r 0.92296 0 4 tcp 1040 ------- 0 0.0 3.0 31 47
+ 0.92296 4 5 tcp 1040 ------- 0 0.0 3.0 31 47
r 0.92432 3 5 ack 40 ------- 0 3.0 0.0 16 49
+ 0.92432 5 4 ack 40 ------- 0 3.0 0.0 16 49
- 0.92432 5 4 ack 40 ------- 0 3.0 0.0 16 49
- 0.92728 4 5 tcp 1040 ------- 0 0.0 3.0 18 27
r 0.93128 0 4 tcp 1040 ------- 0 0.0 3.0 32 48
+ 0.93128 4 5 tcp 1040 ------- 0 0.0 3.0 32 48
r 0.93592 5 4 ack 40 ------- 0 3.0 0.0 16 49
+ 0.93592 4 0 ack 40 ------- 0 3.0 0.0 16 49
- 0.93592 4 0 ack 40 ------- 0 3.0 0.0 16 49
r 0.93728 4 5 tcp 1040 ------- 0 0.0 3.0 17 26
+ 0.93728 5 3 tcp 1040 ------- 0 0.0 3.0 17 26
- 0.93728 5 3 tcp 1040 ------- 0 0.0 3.0 17 26
r 0.94624 4 0 ack 40 ------- 0 3.0 0.0 16 49
+ 0.94624 0 4 tcp 1040 ------- 0 0.0 3.0 33 50
- 0.94624 0 4 tcp 1040 ------- 0 0.0 3.0 33 50
+ 0.94624 0 4 tcp 1040 ------- 0 0.0 3.0 34 51
- 0.95456 0 4 tcp 1040 ------- 0 0.0 3.0 34 51
r 0.9556 5 3 tcp 1040 ------- 0 0.0 3.0 17 26
+ 0.9556 3 5 ack 40 ------- 0 3.0 0.0 17 52
- 0.9556 3 5 ack 40 ------- 0 3.0 0.0 17 52
r 0.96456 0 4 tcp 1040 ------- 0 0.0 3.0 33 50
+ 0.96456 4 5 tcp 1040 ------- 0 0.0 3.0 33 50
r 0.96592 3 5 ack 40 ------- 0 3.0 0.0 17 52
+ 0.96592 5 4 ack 40 ------- 0 3.0 0.0 17 52
- 0.96592 5 4 ack 40 ------- 0 3.0 0.0 17 52
- 0.96888 4 5 tcp 1040 ------- 0 0.0 3.0 19 29
r 0.97288 0 4 tcp 1040 ------- 0 0.0 3.0 34 51
+ 0.97288 4 5 tcp 1040 ------- 0 0.0 3.0 34 51
r 0.97752 5 4 ack 40 ------- 0 3.0 0.0 17 52
+ 0.97752 4 0 ack 40 ------- 0 3.0 0.0 17 52
- 0.97752 4 0 ack 40 ------- 0 3.0 0.0 17 52
r 0.97888 4 5 tcp 1040 ------- 0 0.0 3.0 18 27
+ 0.97888 5 3 tcp 1040 ------- 0 0.0 3.0 18 27
- 0.97888 5 3 tcp 1040 ------- 0 0.0 3.0 18 27
r 0.98784 4 0 ack 40 ------- 0 3.0 0.0 17 52
+ 0.98784 0 4 tcp 1040 ------- 0 0.0 3.0 35 53
- 0.98784 0 4 tcp 1040 ------- 0 0.0 3.0 35 53
+ 0.98784 0 4 tcp 1040 ------- 0 0.0 3.0 36 54
- 0.99616 0 4 tcp 1040 ------- 0 0.0 3.0 36 54
r 0.9972 5 3 tcp 1040 ------- 0 0.0 3.0 18 27
+ 0.9972 3 5 ack 40 ------- 0 3.0 0.0 18 55
- 0.9972 3 5 ack 40 ------- 0 3.0 0.0 18 55
r 1.00616 0 4 tcp 1040 ------- 0 0.0 3.0 35 53
+ 1.00616 4 5 tcp 1040 ------- 0 0.0 3.0 35 53
r 1.00752 3 5 ack 40 ------- 0 3.0 0.0 18 55
+ 1.00752 5 4 ack 40 ------- 0 3.0 0.0 18 55
- 1.00752 5 4 ack 40 ------- 0 3.0 0.0 18 55
- 1.01048 4 5 tcp 1040 ------- 0 0.0 3.0 20 30
r 1.01448 0 4 tcp 1040 ------- 0 0.0 3.0 36 54
+ 1.01448 4 5 tcp 1040 ------- 0 0.0 3.0 36 54
r 1.01912 5 4 ack 40 ------- 0 3.0 0.0 18 55
+ 1.01912 4 0 ack 40 ------- 0 3.0 0.0 18 55
- 1.01912 4 0 ack 40 ------- 0 3.0 0.0 18 55
r 1.02048 4 5 tcp 1040 ------- 0 0.0 3.0 19 29
+ 1.02048 5 3 tcp 1040 ------- 0 0.0 3.0 19 29
- 1.02048 5 3 tcp 1040 ------- 0 0.0 3.0 19 29
r 1.02944 4 0 ack 40 ------- 0 3.0 0.0 18 55
r 1.0388 5 3 tcp 1040 ------- 0 0.0 3.0 19 29
+ 1.0388 3 5 ack 40 ------- 0 3.0 0.0 19 56
- 1.0388 3 5 ack 40 ------- 0 3.0 0.0 19 56
r 1.04912 3 5 ack 40 ------- 0 3.0 0.0 19 56
+ 1.04912 5 4 ack 40 ------- 0 3.0 0.0 19 56
- 1.04912 5 4 ack 40 ------- 0 3.0 0.0 19 56
- 1.05208 4 5 tcp 1040 ------- 0 0.0 3.0 21 32
r 1.06072 5 4 ack 40 ------- 0 3.0 0.0 19 56
+ 1.06072 4 0 ack 40 ------- 0 3.0 0.0 19 56
- 1.06072 4 0 ack 40 ------- 0 3.0 0.0 19 56
r 1.06208 4 5 tcp 1040 ------- 0 0.0 3.0 20 30
+ 1.06208 5 3 tcp 1040 ------- 0 0.0 3.0 20 30
- 1.06208 5 3 tcp 1040 ------- 0 0.0 3.0 20 30
r 1.07104 4 0 ack 40 ------- 0 3.0 0.0 19 56
r 1.0804 5 3 tcp 1040 ------- 0 0.0 3.0 20 30
+ 1.0804 3 5 ack 40 ------- 0 3.0 0.0 20 57
- 1.0804 3 5 ack 40 ------- 0 3.0 0.0 20 57
r 1.09072 3 5 ack 40 ------- 0 3.0 0.0 20 57
+ 1.09072 5 4 ack 40 ------- 0 3.0 0.0 20 57
- 1.09072 5 4 ack 40 ------- 0 3.0 0.0 20 57
- 1.09368 4 5 tcp 1040 ------- 0 0.0 3.0 22 33
+ 1.1 1 4 cbr 210 ------- 0 1.0 2.0 0 58
- 1.1 1 4 cbr 210 ------- 0 1.0 2.0 0 58
r 1.10232 5 4 ack 40 ------- 0 3.0 0.0 20 57
+ 1.10232 4 0 ack 40 ------- 0 3.0 0.0 20 57
- 1.10232 4 0 ack 40 ------- 0 3.0 0.0 20 57
r 1.10368 4 5 tcp 1040 ------- 0 0.0 3.0 21 32
+ 1.10368 5 3 tcp 1040 ------- 0 0.0 3.0 21 32
- 1.10368 5 3 tcp 1040 ------- 0 0.0 3.0 21 32
+ 1.10375 1 4 cbr 210 ------- 0 1.0 2.0 1 59
- 1.10375 1 4 cbr 210 ------- 0 1.0 2.0 1 59
+ 1.1075 1 4 cbr 210 ------- 0 1.0 2.0 2 60
- 1.1075 1 4 cbr 210 ------- 0 1.0 2.0 2 60
+ 1.11125 1 4 cbr 210 ------- 0 1.0 2.0 3 61
- 1.11125 1 4 cbr 210 ------- 0 1.0 2.0 3 61
r 1.11168 1 4 cbr 210 ------- 0 1.0 2.0 0 58
+ 1.11168 4 5 cbr 210 ------- 0 1.0 2.0 0 58
r 1.11264 4 0 ack 40 ------- 0 3.0 0.0 20 57
+ 1.115 1 4 cbr 210 ------- 0 1.0 2.0 4 62
- 1.115 1 4 cbr 210 ------- 0 1.0 2.0 4 62
r 1.11543 1 4 cbr 210 ------- 0 1.0 2.0 1 59
+ 1.11543 4 5 cbr 210 ------- 0 1.0 2.0 1 59
+ 1.11875 1 4 cbr 210 ------- 0 1.0 2.0 5 63
- 1.11875 1 4 cbr 210 ------- 0 1.0 2.0 5 63
r 1.11918 1 4 cbr 210 ------- 0 1.0 2.0 2 60
+ 1.11918 4 5 cbr 210 ------- 0 1.0 2.0 2 60
r 1.122 5 3 tcp 1040 ------- 0 0.0 3.0 21 32
+ 1.122 3 5 ack 40 ------- 0 3.0 0.0 21 64
- 1.122 3 5 ack 40 ------- 0 3.0 0.0 21 64
+ 1.1225 1 4 cbr 210 ------- 0 1.0 2.0 6 65
- 1.1225 1 4 cbr 210 ------- 0 1.0 2.0 6 65
r 1.12293 1 4 cbr 210 ------- 0 1.0 2.0 3 61
+ 1.12293 4 5 cbr 210 ------- 0 1.0 2.0 3 61
+ 1.12625 1 4 cbr 210 ------- 0 1.0 2.0 7 66
- 1.12625 1 4 cbr 210 ------- 0 1.0 2.0 7 66
r 1.12668 1 4 cbr 210 ------- 0 1.0 2.0 4 62
+ 1.12668 4 5 cbr 210 ------- 0 1.0 2.0 4 62
+ 1.13 1 4 cbr 210 ------- 0 1.0 2.0 8 67
- 1.13 1 4 cbr 210 ------- 0 1.0 2.0 8 67
r 1.13043 1 4 cbr 210 ------- 0 1.0 2.0 5 63
+ 1.13043 4 5 cbr 210 ------- 0 1.0 2.0 5 63
r 1.13232 3 5 ack 40 ------- 0 3.0 0.0 21 64
+ 1.13232 5 4 ack 40 ------- 0 3.0 0.0 21 64
- 1.13232 5 4 ack 40 ------- 0 3.0 0.0 21 64
+ 1.13375 1 4 cbr 210 ------- 0 1.0 2.0 9 68
- 1.13375 1 4 cbr 210 ------- 0 1.0 2.0 9 68
r 1.13418 1 4 cbr 210 ------- 0 1.0 2.0 6 65
+ 1.13418 4 5 cbr 210 ------- 0 1.0 2.0 6 65
- 1.13528 4 5 tcp 1040 ------- 0 0.0 3.0 23 35
+ 1.1375 1 4 cbr 210 ------- 0 1.0 2.0 10 69
- 1.1375 1 4 cbr 210 ------- 0 1.0 2.0 10 69
r 1.13793 1 4 cbr 210 ------- 0 1.0 2.0 7 66
+ 1.13793 4 5 cbr 210 ------- 0 1.0 2.0 7 66
+ 1.14125 1 4 cbr 210 ------- 0 1.0 2.0 11 70
- 1.14125 1 4 cbr 210 ------- 0 1.0 2.0 11 70
r 1.14168 1 4 cbr 210 ------- 0 1.0 2.0 8 67
+ 1.14168 4 5 cbr 210 ------- 0 1.0 2.0 8 67
r 1.14392 5 4 ack 40 ------- 0 3.0 0.0 21 64
+ 1.14392 4 0 ack 40 ------- 0 3.0 0.0 21 64
- 1.14392 4 0 ack 40 ------- 0 3.0 0.0 21 64
+ 1.145 1 4 cbr 210 ------- 0 1.0 2.0 12 71
- 1.145 1 4 cbr 210 ------- 0 1.0 2.0 12 71
r 1.14528 4 5 tcp 1040 ------- 0 0.0 3.0 22 33
+ 1.14528 5 3 tcp 1040 ------- 0 0.0 3.0 22 33
- 1.14528 5 3 tcp 1040 ------- 0 0.0 3.0 22 33
r 1.14543 1 4 cbr 210 ------- 0 1.0 2.0 9 68
+ 1.14543 4 5 cbr 210 ------- 0 1.0 2.0 9 68
+ 1.14875 1 4 cbr 210 ------- 0 1.0 2.0 13 72
- 1.14875 1 4 cbr 210 ------- 0 1.0 2.0 13 72
r 1.14918 1 4 cbr 210 ------- 0 1.0 2.0 10 69
+ 1.14918 4 5 cbr 210 ------- 0 1.0 2.0 10 69
+ 1.1525 1 4 cbr 210 ------- 0 1.0 2.0 14 73
- 1.1525 1 4 cbr 210 ------- 0 1.0 2.0 14 73
r 1.15293 1 4 cbr 210 ------- 0 1.0 2.0 11 70
+ 1.15293 4 5 cbr 210 ------- 0 1.0 2.0 11 70
r 1.15424 4 0 ack 40 ------- 0 3.0 0.0 21 64
+ 1.15625 1 4 cbr 210 ------- 0 1.0 2.0 15 74
- 1.15625 1 4 cbr 210 ------- 0 1.0 2.0 15 74
r 1.15668 1 4 cbr 210 ------- 0 1.0 2.0 12 71
+ 1.15668 4 5 cbr 210 ------- 0 1.0 2.0 12 71
+ 1.16 1 4 cbr 210 ------- 0 1.0 2.0 16 75
- 1.16 1 4 cbr 210 ------- 0 1.0 2.0 16 75
r 1.16043 1 4 cbr 210 ------- 0 1.0 2.0 13 72
+ 1.16043 4 5 cbr 210 ------- 0 1.0 2.0 13 72
r 1.1636 5 3 tcp 1040 ------- 0 0.0 3.0 22 33
+ 1.1636 3 5 ack 40 ------- 0 3.0 0.0 22 76
- 1.1636 3 5 ack 40 ------- 0 3.0 0.0 22 76
+ 1.16375 1 4 cbr 210 ------- 0 1.0 2.0 17 77
- 1.16375 1 4 cbr 210 ------- 0 1.0 2.0 17 77
r 1.16418 1 4 cbr 210 ------- 0 1.0 2.0 14 73
+ 1.16418 4 5 cbr 210 ------- 0 1.0 2.0 14 73
+ 1.1675 1 4 cbr 210 ------- 0 1.0 2.0 18 78
- 1.1675 1 4 cbr 210 ------- 0 1.0 2.0 18 78
r 1.16793 1 4 cbr 210 ------- 0 1.0 2.0 15 74
+ 1.16793 4 5 cbr 210 ------- 0 1.0 2.0 15 74
+ 1.17125 1 4 cbr 210 ------- 0 1.0 2.0 19 79
- 1.17125 1 4 cbr 210 ------- 0 1.0 2.0 19 79
r 1.17168 1 4 cbr 210 ------- 0 1.0 2.0 16 75
+ 1.17168 4 5 cbr 210 ------- 0 1.0 2.0 16 75
r 1.17392 3 5 ack 40 ------- 0 3.0 0.0 22 76
+ 1.17392 5 4 ack 40 ------- 0 3.0 0.0 22 76
- 1.17392 5 4 ack 40 ------- 0 3.0 0.0 22 76
+ 1.175 1 4 cbr 210 ------- 0 1.0 2.0 20 80
- 1.175 1 4 cbr 210 ------- 0 1.0 2.0 20 80
r 1.17543 1 4 cbr 210 ------- 0 1.0 2.0 17 77
+ 1.17543 4 5 cbr 210 ------- 0 1.0 2.0 17 77
- 1.17688 4 5 tcp 1040 ------- 0 0.0 3.0 24 36
+ 1.17875 1 4 cbr 210 ------- 0 1.0 2.0 21 81
- 1.17875 1 4 cbr 210 ------- 0 1.0 2.0 21 81
r 1.17918 1 4 cbr 210 ------- 0 1.0 2.0 18 78
+ 1.17918 4 5 cbr 210 ------- 0 1.0 2.0 18 78
+ 1.1825 1 4 cbr 210 ------- 0 1.0 2.0 22 82
- 1.1825 1 4 cbr 210 ------- 0 1.0 2.0 22 82
r 1.18293 1 4 cbr 210 ------- 0 1.0 2.0 19 79
+ 1.18293 4 5 cbr 210 ------- 0 1.0 2.0 19 79
r 1.18552 5 4 ack 40 ------- 0 3.0 0.0 22 76
+ 1.18552 4 0 ack 40 ------- 0 3.0 0.0 22 76
- 1.18552 4 0 ack 40 ------- 0 3.0 0.0 22 76
+ 1.18625 1 4 cbr 210 ------- 0 1.0 2.0 23 83
- 1.18625 1 4 cbr 210 ------- 0 1.0 2.0 23 83
r 1.18668 1 4 cbr 210 ------- 0 1.0 2.0 20 80
+ 1.18668 4 5 cbr 210 ------- 0 1.0 2.0 20 80
r 1.18688 4 5 tcp 1040 ------- 0 0.0 3.0 23 35
+ 1.18688 5 3 tcp 1040 ------- 0 0.0 3.0 23 35
- 1.18688 5 3 tcp 1040 ------- 0 0.0 3.0 23 35
+ 1.19 1 4 cbr 210 ------- 0 1.0 2.0 24 84
- 1.19 1 4 cbr 210 ------- 0 1.0 2.0 24 84
r 1.19043 1 4 cbr 210 ------- 0 1.0 2.0 21 81
+ 1.19043 4 5 cbr 210 ------- 0 1.0 2.0 21 81
+ 1.19375 1 4 cbr 210 ------- 0 1.0 2.0 25 85
- 1.19375 1 4 cbr 210 ------- 0 1.0 2.0 25 85
r 1.19418 1 4 cbr 210 ------- 0 1.0 2.0 22 82
+ 1.19418 4 5 cbr 210 ------- 0 1.0 2.0 22 82
r 1.19584 4 0 ack 40 ------- 0 3.0 0.0 22 76
+ 1.1975 1 4 cbr 210 ------- 0 1.0 2.0 26 86
- 1.1975 1 4 cbr 210 ------- 0 1.0 2.0 26 86
r 1.19793 1 4 cbr 210 ------- 0 1.0 2.0 23 83
+ 1.19793 4 5 cbr 210 ------- 0 1.0 2.0 23 83
+ 1.20125 1 4 cbr 210 ------- 0 1.0 2.0 27 87
- 1.20125 1 4 cbr 210 ------- 0 1.0 2.0 27 87
r 1.20168 1 4 cbr 210 ------- 0 1.0 2.0 24 84
+ 1.20168 4 5 cbr 210 ------- 0 1.0 2.0 24 84
+ 1.205 1 4 cbr 210 ------- 0 1.0 2.0 28 88
- 1.205 1 4 cbr 210 ------- 0 1.0 2.0 28 88
r 1.2052 5 3 tcp 1040 ------- 0 0.0 3.0 23 35
+ 1.2052 3 5 ack 40 ------- 0 3.0 0.0 23 89
- 1.2052 3 5 ack 40 ------- 0 3.0 0.0 23 89
r 1.20543 1 4 cbr 210 ------- 0 1.0 2.0 25 85
+ 1.20543 4 5 cbr 210 ------- 0 1.0 2.0 25 85
+ 1.20875 1 4 cbr 210 ------- 0 1.0 2.0 29 90
- 1.20875 1 4 cbr 210 ------- 0 1.0 2.0 29 90
r 1.20918 1 4 cbr 210 ------- 0 1.0 2.0 26 86
+ 1.20918 4 5 cbr 210 ------- 0 1.0 2.0 26 86
+ 1.2125 1 4 cbr 210 ------- 0 1.0 2.0 30 91
- 1.2125 1 4 cbr 210 ------- 0 1.0 2.0 30 91
r 1.21293 1 4 cbr 210 ------- 0 1.0 2.0 27 87
+ 1.21293 4 5 cbr 210 ------- 0 1.0 2.0 27 87
r 1.21552 3 5 ack 40 ------- 0 3.0 0.0 23 89
+ 1.21552 5 4 ack 40 ------- 0 3.0 0.0 23 89
- 1.21552 5 4 ack 40 ------- 0 3.0 0.0 23 89
+ 1.21625 1 4 cbr 210 ------- 0 1.0 2.0 31 92
- 1.21625 1 4 cbr 210 ------- 0 1.0 2.0 31 92
r 1.21668 1 4 cbr 210 ------- 0 1.0 2.0 28 88
+ 1.21668 4 5 cbr 210 ------- 0 1.0 2.0 28 88
- 1.21848 4 5 tcp 1040 ------- 0 0.0 3.0 25 38
+ 1.22 1 4 cbr 210 ------- 0 1.0 2.0 32 93
- 1.22 1 4 cbr 210 ------- 0 1.0 2.0 32 93
r 1.22043 1 4 cbr 210 ------- 0 1.0 2.0 29 90
+ 1.22043 4 5 cbr 210 ------- 0 1.0 2.0 29 90
+ 1.22375 1 4 cbr 210 ------- 0 1.0 2.0 33 94
- 1.22375 1 4 cbr 210 ------- 0 1.0 2.0 33 94
r 1.22418 1 4 cbr 210 ------- 0 1.0 2.0 30 91
+ 1.22418 4 5 cbr 210 ------- 0 1.0 2.0 30 91
r 1.22712 5 4 ack 40 ------- 0 3.0 0.0 23 89
+ 1.22712 4 0 ack 40 ------- 0 3.0 0.0 23 89
- 1.22712 4 0 ack 40 ------- 0 3.0 0.0 23 89
+ 1.2275 1 4 cbr 210 ------- 0 1.0 2.0 34 95
- 1.2275 1 4 cbr 210 ------- 0 1.0 2.0 34 95
r 1.22793 1 4 cbr 210 ------- 0 1.0 2.0 31 92
+ 1.22793 4 5 cbr 210 ------- 0 1.0 2.0 31 92
r 1.22848 4 5 tcp 1040 ------- 0 0.0 3.0 24 36
+ 1.22848 5 3 tcp 1040 ------- 0 0.0 3.0 24 36
- 1.22848 5 3 tcp 1040 ------- 0 0.0 3.0 24 36
+ 1.23125 1 4 cbr 210 ------- 0 1.0 2.0 35 96
- 1.23125 1 4 cbr 210 ------- 0 1.0 2.0 35 96
r 1.23168 1 4 cbr 210 ------- 0 1.0 2.0 32 93
+ 1.23168 4 5 cbr 210 ------- 0 1.0 2.0 32 93
+ 1.235 1 4 cbr 210 ------- 0 1.0 2.0 36 97
- 1.235 1 4 cbr 210 ------- 0 1.0 2.0 36 97
r 1.23543 1 4 cbr 210 ------- 0 1.0 2.0 33 94
+ 1.23543 4 5 cbr 210 ------- 0 1.0 2.0 33 94
r 1.23744 4 0 ack 40 ------- 0 3.0 0.0 23 89
+ 1.23875 1 4 cbr 210 ------- 0 1.0 2.0 37 98
- 1.23875 1 4 cbr 210 ------- 0 1.0 2.0 37 98
r 1.23918 1 4 cbr 210 ------- 0 1.0 2.0 34 95
+ 1.23918 4 5 cbr 210 ------- 0 1.0 2.0 34 95
+ 1.2425 1 4 cbr 210 ------- 0 1.0 2.0 38 99
- 1.2425 1 4 cbr 210 ------- 0 1.0 2.0 38 99
r 1.24293 1 4 cbr 210 ------- 0 1.0 2.0 35 96
+ 1.24293 4 5 cbr 210 ------- 0 1.0 2.0 35 96
+ 1.24625 1 4 cbr 210 ------- 0 1.0 2.0 39 100
- 1.24625 1 4 cbr 210 ------- 0 1.0 2.0 39 100
r 1.24668 1 4 cbr 210 ------- 0 1.0 2.0 36 97
+ 1.24668 4 5 cbr 210 ------- 0 1.0 2.0 36 97
r 1.2468 5 3 tcp 1040 ------- 0 0.0 3.0 24 36
+ 1.2468 3 5 ack 40 ------- 0 3.0 0.0 24 101
- 1.2468 3 5 ack 40 ------- 0 3.0 0.0 24 101
+ 1.25 1 4 cbr 210 ------- 0 1.0 2.0 40 102
- 1.25 1 4 cbr 210 ------- 0 1.0 2.0 40 102
r 1.25043 1 4 cbr 210 ------- 0 1.0 2.0 37 98
+ 1.25043 4 5 cbr 210 ------- 0 1.0 2.0 37 98
+ 1.25375 1 4 cbr 210 ------- 0 1.0 2.0 41 103
- 1.25375 1 4 cbr 210 ------- 0 1.0 2.0 41 103
r 1.25418 1 4 cbr 210 ------- 0 1.0 2.0 38 99
+ 1.25418 4 5 cbr 210 ------- 0 1.0 2.0 38 99
d 1.25418 4 5 cbr 210 ------- 0 1.0 2.0 38 99
r 1.25712 3 5 ack 40 ------- 0 3.0 0.0 24 101
+ 1.25712 5 4 ack 40 ------- 0 3.0 0.0 24 101
- 1.25712 5 4 ack 40 ------- 0 3.0 0.0 24 101
+ 1.2575 1 4 cbr 210 ------- 0 1.0 2.0 42 104
- 1.2575 1 4 cbr 210 ------- 0 1.0 2.0 42 104
r 1.25793 1 4 cbr 210 ------- 0 1.0 2.0 39 100